/*--------------------------------*- C++ -*----------------------------------*\
  =========                 |
  \\      /  F ield         | OpenFOAM: The Open Source CFD Toolbox
   \\    /   O peration     | Website:  https://openfoam.org
    \\  /    A nd           | Version:  7
     \\/     M anipulation  |
\*---------------------------------------------------------------------------*/
FoamFile
{
    version     2.0;
    format      ascii;
    class       surfaceScalarField;
    location    "0.1";
    object      phi;
}
// * * * * * * * * * * * * * * * * * * * * * * * * * * * * * * * * * * * * * //

dimensions      [0 3 -1 0 0 0 0];

internalField   nonuniform List<scalar> 
91004
(
1.01816e-08
1.01816e-08
0.000654629
1.28913e-08
1.36552e-08
0.000870385
1.4683e-08
1.39308e-08
0.00088963
1.67857e-08
1.3959e-08
0.000890859
1.85097e-08
1.39669e-08
0.000890948
1.93997e-08
1.39804e-08
0.000890984
1.92559e-08
1.40142e-08
0.00089102
1.80313e-08
1.40751e-08
0.000891057
1.57775e-08
1.4166e-08
0.000891091
1.261e-08
1.42839e-08
0.000891122
8.68978e-09
1.4417e-08
0.000891147
4.20346e-09
1.45485e-08
0.000891164
-6.44162e-10
1.46564e-08
0.000891173
-5.61253e-09
1.47171e-08
0.000891173
-1.04557e-08
1.4714e-08
0.000891164
-1.48915e-08
1.46366e-08
0.000891146
-1.86317e-08
1.44844e-08
0.000891121
-2.1397e-08
1.42677e-08
0.000891091
-2.29491e-08
1.40093e-08
0.000891057
-2.31367e-08
1.37412e-08
0.000891021
-2.19512e-08
1.34986e-08
0.000890985
-1.9601e-08
1.33104e-08
0.000890949
-1.66159e-08
1.31873e-08
0.000890861
-1.38434e-08
1.31112e-08
0.000889632
-1.04496e-08
1.28667e-08
0.000870387
9.63119e-09
0.00065463
1.36552e-08
1.28913e-08
0.000870385
1.7127e-08
1.7127e-08
0.00116213
1.93018e-08
1.74773e-08
0.00118849
2.19326e-08
1.75095e-08
0.0011902
2.41026e-08
1.75672e-08
0.00119032
2.52002e-08
1.76715e-08
0.00119037
2.49752e-08
1.78312e-08
0.00119042
2.33656e-08
1.80502e-08
0.00119047
2.04509e-08
1.83229e-08
0.00119051
1.63712e-08
1.86282e-08
0.00119055
1.1321e-08
1.8939e-08
0.00119059
5.52424e-09
1.92163e-08
0.00119061
-7.65999e-10
1.94184e-08
0.00119062
-7.25377e-09
1.95019e-08
0.00119062
-1.36136e-08
1.94435e-08
0.00119061
-1.94754e-08
1.92306e-08
0.00119059
-2.4448e-08
1.88741e-08
0.00119055
-2.81447e-08
1.84071e-08
0.00119051
-3.02345e-08
1.78835e-08
0.00119047
-3.05081e-08
1.73686e-08
0.00119042
-2.89556e-08
1.69276e-08
0.00119037
-2.58686e-08
1.66101e-08
0.00119032
-2.19869e-08
1.6434e-08
0.0011902
-1.8479e-08
1.63688e-08
0.0011885
-1.40726e-08
1.60975e-08
0.00116213
1.22111e-08
0.000870387
1.39308e-08
1.4683e-08
0.00088963
1.74773e-08
1.93018e-08
0.00118849
1.97106e-08
1.97106e-08
0.00121555
2.24216e-08
1.98089e-08
0.00121731
2.46734e-08
1.99657e-08
0.00121743
2.58393e-08
2.02185e-08
0.00121748
2.5656e-08
2.05693e-08
0.00121753
2.40593e-08
2.10043e-08
0.00121758
2.11161e-08
2.15064e-08
0.00121763
1.69626e-08
2.20376e-08
0.00121767
1.17867e-08
2.25445e-08
0.00121771
5.81232e-09
2.29692e-08
0.00121773
-7.01196e-10
2.32514e-08
0.00121774
-7.45397e-09
2.33334e-08
0.00121774
-1.40923e-08
2.31959e-08
0.00121773
-2.02166e-08
2.28331e-08
0.00121771
-2.54022e-08
2.22765e-08
0.00121767
-2.92339e-08
2.15881e-08
0.00121763
-3.13617e-08
2.08512e-08
0.00121759
-3.15731e-08
2.01592e-08
0.00121754
-2.98738e-08
1.9596e-08
0.00121749
-2.65902e-08
1.92153e-08
0.00121744
-2.2518e-08
1.90279e-08
0.00121731
-1.8891e-08
1.89787e-08
0.00121556
-1.44033e-08
1.86835e-08
0.0011885
1.43386e-08
0.000889633
1.3959e-08
1.67857e-08
0.000890859
1.75095e-08
2.19326e-08
0.0011902
1.98089e-08
2.24216e-08
0.00121731
2.26023e-08
2.26023e-08
0.00121906
2.49476e-08
2.28886e-08
0.00121919
2.62074e-08
2.33069e-08
0.00121924
2.61078e-08
2.38548e-08
0.00121929
2.45729e-08
2.45138e-08
0.00121934
2.16518e-08
2.52426e-08
0.00121939
1.7469e-08
2.59855e-08
0.00121943
1.22043e-08
2.66701e-08
0.00121947
6.08151e-09
2.72191e-08
0.00121949
-6.25815e-10
2.75607e-08
0.0012195
-7.60811e-09
2.76325e-08
0.0012195
-1.44752e-08
2.74241e-08
0.00121949
-2.07961e-08
2.69426e-08
0.00121946
-2.61169e-08
2.62416e-08
0.00121943
-3.00004e-08
2.54077e-08
0.00121939
-3.20894e-08
2.45482e-08
0.00121934
-3.21813e-08
2.37722e-08
0.00121929
-3.03077e-08
2.31685e-08
0.00121924
-2.68363e-08
2.27857e-08
0.0012192
-2.26117e-08
2.26193e-08
0.00121907
-1.89201e-08
2.25905e-08
0.00121731
-1.44669e-08
2.22384e-08
0.0011902
1.71012e-08
0.000890862
1.39669e-08
1.85097e-08
0.000890948
1.75672e-08
2.41026e-08
0.00119032
1.99657e-08
2.46734e-08
0.00121743
2.28886e-08
2.49476e-08
0.00121919
2.53644e-08
2.53644e-08
0.00121932
2.6752e-08
2.59508e-08
0.00121937
2.6759e-08
2.66916e-08
0.00121942
2.52905e-08
2.75546e-08
0.00121947
2.23805e-08
2.84851e-08
0.00121952
1.81374e-08
2.94081e-08
0.00121956
1.27361e-08
3.02361e-08
0.00121959
6.40742e-09
3.08804e-08
0.00121962
-5.52515e-10
3.12617e-08
0.00121963
-7.82341e-09
3.13243e-08
0.00121963
-1.49591e-08
3.10656e-08
0.00121962
-2.14955e-08
3.05109e-08
0.00121959
-2.69463e-08
2.97339e-08
0.00121956
-3.08555e-08
2.8841e-08
0.00121952
-3.28661e-08
2.79541e-08
0.00121947
-3.27953e-08
2.71878e-08
0.00121942
-3.07125e-08
2.66254e-08
0.00121937
-2.70338e-08
2.63012e-08
0.00121932
-2.26531e-08
2.61914e-08
0.0012192
-1.88997e-08
2.61955e-08
0.00121744
-1.44743e-08
2.57727e-08
0.00119033
1.9777e-08
0.000890951
1.39804e-08
1.93997e-08
0.000890984
1.76715e-08
2.52002e-08
0.00119037
2.02185e-08
2.58393e-08
0.00121748
2.33069e-08
2.62074e-08
0.00121924
2.59508e-08
2.6752e-08
0.00121937
2.74897e-08
2.74897e-08
0.00121942
2.76156e-08
2.83982e-08
0.00121947
2.62105e-08
2.943e-08
0.00121952
2.32897e-08
3.05171e-08
0.00121957
1.89504e-08
3.15722e-08
0.00121961
1.33652e-08
3.24969e-08
0.00121965
6.77849e-09
3.31971e-08
0.00121967
-4.85239e-10
3.35943e-08
0.00121968
-8.08162e-09
3.36473e-08
0.00121968
-1.55086e-08
3.33601e-08
0.00121967
-2.2263e-08
3.27791e-08
0.00121965
-2.78278e-08
3.19952e-08
0.00121961
-3.17333e-08
3.11278e-08
0.00121957
-3.36311e-08
3.03048e-08
0.00121952
-3.33675e-08
2.96357e-08
0.00121947
-3.10594e-08
2.91889e-08
0.00121942
-2.71744e-08
2.89767e-08
0.00121937
-2.26506e-08
2.8952e-08
0.00121925
-1.88447e-08
2.89941e-08
0.00121749
-1.44426e-08
2.84983e-08
0.00119037
2.17946e-08
0.000890988
1.40142e-08
1.92559e-08
0.00089102
1.78312e-08
2.49752e-08
0.00119042
2.05693e-08
2.5656e-08
0.00121753
2.38548e-08
2.61078e-08
0.00121929
2.66916e-08
2.6759e-08
0.00121942
2.83982e-08
2.76156e-08
0.00121947
2.86431e-08
2.86431e-08
0.00121952
2.72898e-08
2.97861e-08
0.00121957
2.43339e-08
3.09652e-08
0.00121962
1.98639e-08
3.20853e-08
0.00121966
1.4056e-08
3.30448e-08
0.0012197
7.17404e-09
3.37506e-08
0.00121972
-4.26355e-10
3.41329e-08
0.00121973
-8.35956e-09
3.41667e-08
0.00121973
-1.60747e-08
3.38676e-08
0.00121972
-2.30283e-08
3.33006e-08
0.0012197
-2.86763e-08
3.25693e-08
0.00121966
-3.25434e-08
3.17997e-08
0.00121962
-3.42982e-08
3.11154e-08
0.00121957
-3.38263e-08
3.06112e-08
0.00121952
-3.12974e-08
3.03332e-08
0.00121947
-2.72306e-08
3.02657e-08
0.00121942
-2.25979e-08
3.03367e-08
0.0012193
-1.87636e-08
3.04096e-08
0.00121754
-1.43869e-08
2.98462e-08
0.00119042
2.27438e-08
0.000891024
1.40751e-08
1.80313e-08
0.000891057
1.80502e-08
2.33656e-08
0.00119047
2.10043e-08
2.40593e-08
0.00121758
2.45138e-08
2.45729e-08
0.00121934
2.75546e-08
2.52905e-08
0.00121947
2.943e-08
2.62105e-08
0.00121952
2.97861e-08
2.72898e-08
0.00121957
2.84653e-08
2.84653e-08
0.00121962
2.54479e-08
2.96531e-08
0.00121967
2.08179e-08
3.07566e-08
0.00121971
1.47604e-08
3.16775e-08
0.00121975
7.56342e-09
3.23304e-08
0.00121977
-3.82104e-10
3.26599e-08
0.00121978
-8.64061e-09
3.26586e-08
0.00121978
-1.6618e-08
3.23557e-08
0.00121977
-2.37328e-08
3.18309e-08
0.00121975
-2.94212e-08
3.11961e-08
0.00121971
-3.32115e-08
3.05757e-08
0.00121967
-3.47988e-08
3.00799e-08
0.00121963
-3.41169e-08
2.97817e-08
0.00121958
-3.13915e-08
2.96985e-08
0.00121953
-2.7189e-08
2.97833e-08
0.00121947
-2.25021e-08
2.99409e-08
0.00121935
-1.86772e-08
3.0026e-08
0.00121759
-1.4331e-08
2.94117e-08
0.00119047
2.23315e-08
0.000891059
1.4166e-08
1.57775e-08
0.000891091
1.83229e-08
2.04509e-08
0.00119051
2.15064e-08
2.11161e-08
0.00121763
2.52426e-08
2.16518e-08
0.00121939
2.84851e-08
2.23805e-08
0.00121952
3.05171e-08
2.32897e-08
0.00121957
3.09652e-08
2.43339e-08
0.00121962
2.96531e-08
2.54479e-08
0.00121967
2.65494e-08
2.65494e-08
0.00121972
2.1738e-08
2.75469e-08
0.00121976
1.54184e-08
2.83514e-08
0.0012198
7.90652e-09
2.88914e-08
0.00121982
-3.68446e-10
2.91292e-08
0.00121983
-8.91911e-09
2.90745e-08
0.00121983
-1.71122e-08
2.87692e-08
0.00121982
-2.4335e-08
2.83038e-08
0.0012198
-3.00138e-08
2.77922e-08
0.00121976
-3.36887e-08
2.73479e-08
0.00121972
-3.50926e-08
2.70616e-08
0.00121967
-3.42135e-08
2.69794e-08
0.00121962
-3.13323e-08
2.70868e-08
0.00121957
-2.7057e-08
2.73069e-08
0.00121952
-2.23842e-08
2.75256e-08
0.00121939
-1.86153e-08
2.75988e-08
0.00121764
-1.43041e-08
2.69665e-08
0.00119052
2.03885e-08
0.000891093
1.42839e-08
1.261e-08
0.000891122
1.86282e-08
1.63711e-08
0.00119055
2.20376e-08
1.69626e-08
0.00121767
2.59855e-08
1.7469e-08
0.00121943
2.94081e-08
1.81374e-08
0.00121956
3.15722e-08
1.89504e-08
0.00121961
3.20853e-08
1.98639e-08
0.00121966
3.07566e-08
2.08179e-08
0.00121971
2.75469e-08
2.1738e-08
0.00121976
2.25443e-08
2.25443e-08
0.00121981
1.59666e-08
2.31625e-08
0.00121984
8.15994e-09
2.35385e-08
0.00121986
-4.06257e-10
2.36527e-08
0.00121988
-9.19696e-09
2.35316e-08
0.00121988
-1.75438e-08
2.32244e-08
0.00121986
-2.48133e-08
2.28287e-08
0.00121984
-3.04297e-08
2.2451e-08
0.00121981
-3.39564e-08
2.21875e-08
0.00121976
-3.51718e-08
2.21046e-08
0.00121972
-3.41212e-08
2.22194e-08
0.00121967
-3.11375e-08
2.24861e-08
0.00121961
-2.68606e-08
2.28043e-08
0.00121956
-2.22736e-08
2.30487e-08
0.00121943
-1.86086e-08
2.30887e-08
0.00121768
-1.43341e-08
2.24779e-08
0.00119055
1.69056e-08
0.000891122
1.4417e-08
8.68978e-09
0.000891147
1.8939e-08
1.1321e-08
0.00119059
2.25446e-08
1.17867e-08
0.00121771
2.66701e-08
1.22043e-08
0.00121947
3.02361e-08
1.27361e-08
0.00121959
3.24969e-08
1.33652e-08
0.00121965
3.30448e-08
1.4056e-08
0.0012197
3.16775e-08
1.47604e-08
0.00121975
2.83514e-08
1.54184e-08
0.0012198
2.31625e-08
1.59666e-08
0.00121984
1.63487e-08
1.63487e-08
0.00121987
8.2871e-09
1.65291e-08
0.0012199
-5.13592e-10
1.65043e-08
0.00121991
-9.47725e-09
1.63169e-08
0.00121991
-1.79081e-08
1.6014e-08
0.0012199
-2.51607e-08
1.56948e-08
0.00121987
-3.06673e-08
1.54499e-08
0.00121984
-3.40234e-08
1.53538e-08
0.0012198
-3.50578e-08
1.54462e-08
0.00121975
-3.38719e-08
1.57159e-08
0.0012197
-3.08447e-08
1.60923e-08
0.00121965
-2.66354e-08
1.64607e-08
0.0012196
-2.21971e-08
1.66958e-08
0.00121947
-1.86741e-08
1.66923e-08
0.00121771
-1.44299e-08
1.61546e-08
0.00119059
1.20469e-08
0.000891146
1.45485e-08
4.20346e-09
0.000891164
1.92163e-08
5.52424e-09
0.00119061
2.29693e-08
5.81232e-09
0.00121773
2.72191e-08
6.08151e-09
0.00121949
3.08804e-08
6.40742e-09
0.00121962
3.31971e-08
6.77849e-09
0.00121967
3.37506e-08
7.17404e-09
0.00121972
3.23304e-08
7.56342e-09
0.00121977
2.88914e-08
7.90652e-09
0.00121982
2.35385e-08
8.15994e-09
0.00121986
1.65291e-08
8.2871e-09
0.0012199
8.26919e-09
8.26919e-09
0.00121992
-6.9904e-10
8.11531e-09
0.00121993
-9.75735e-09
7.87699e-09
0.00121993
-1.8202e-08
7.59537e-09
0.00121992
-2.53802e-08
7.35912e-09
0.0012199
-3.07414e-08
7.23939e-09
0.00121986
-3.39192e-08
7.28551e-09
0.00121982
-3.47932e-08
7.51118e-09
0.00121977
-3.3515e-08
7.88167e-09
0.00121972
-3.05017e-08
8.31209e-09
0.00121967
-2.64173e-08
8.68474e-09
0.00121962
-2.21711e-08
8.88521e-09
0.00121949
-1.88105e-08
8.84428e-09
0.00121773
-1.45816e-08
8.43979e-09
0.00119061
6.15894e-09
0.000891163
1.46564e-08
-6.44163e-10
0.000891173
1.94184e-08
-7.66e-10
0.00119062
2.32514e-08
-7.01197e-10
0.00121774
2.75607e-08
-6.25816e-10
0.0012195
3.12617e-08
-5.52517e-10
0.00121963
3.35943e-08
-4.85241e-10
0.00121968
3.41329e-08
-4.26356e-10
0.00121973
3.26599e-08
-3.82106e-10
0.00121978
2.91292e-08
-3.68448e-10
0.00121983
2.36527e-08
-4.06259e-10
0.00121988
1.65043e-08
-5.13593e-10
0.00121991
8.11531e-09
-6.99042e-10
0.00121993
-9.45211e-10
-9.45212e-10
0.00121995
-1.00245e-08
-1.19288e-09
0.00121995
-1.84204e-08
-1.42754e-09
0.00121993
-2.54802e-08
-1.57574e-09
0.00121991
-3.06775e-08
-1.58276e-09
0.00121988
-3.36857e-08
-1.42634e-09
0.00121983
-3.44309e-08
-1.11682e-09
0.00121979
-3.31055e-08
-7.00348e-10
0.00121973
-3.01544e-08
-2.61137e-10
0.00121968
-2.62327e-08
8.50442e-11
0.00121963
-2.21956e-08
2.41755e-10
0.0012195
-1.89969e-08
1.8801e-10
0.00121774
-1.47633e-08
-2.29067e-11
0.00119062
-2.60093e-10
0.000891171
1.47171e-08
-5.61253e-09
0.000891173
1.95019e-08
-7.25377e-09
0.00119062
2.33334e-08
-7.45397e-09
0.00121774
2.76325e-08
-7.60811e-09
0.0012195
3.13243e-08
-7.82341e-09
0.00121963
3.36473e-08
-8.08162e-09
0.00121968
3.41667e-08
-8.35956e-09
0.00121973
3.26586e-08
-8.64061e-09
0.00121978
2.90745e-08
-8.91911e-09
0.00121983
2.35316e-08
-9.19696e-09
0.00121988
1.63169e-08
-9.47725e-09
0.00121991
7.87699e-09
-9.75735e-09
0.00121993
-1.19288e-09
-1.00245e-08
0.00121995
-1.02433e-08
-1.02433e-08
0.00121995
-1.85486e-08
-1.03921e-08
0.00121994
-2.54754e-08
-1.04306e-08
0.00121991
-3.05182e-08
-1.03354e-08
0.00121988
-3.33835e-08
-1.01028e-08
0.00121983
-3.40363e-08
-9.75411e-09
0.00121979
-3.27027e-08
-9.34089e-09
0.00121973
-2.98384e-08
-8.93756e-09
0.00121968
-2.60834e-08
-8.63031e-09
0.00121963
-2.22444e-08
-8.48704e-09
0.0012195
-1.9187e-08
-8.50858e-09
0.00121774
-1.49341e-08
-8.47089e-09
0.00119062
-6.60938e-09
0.000891171
1.4714e-08
-1.04557e-08
0.000891164
1.94435e-08
-1.36136e-08
0.00119061
2.31959e-08
-1.40923e-08
0.00121773
2.74241e-08
-1.44752e-08
0.00121949
3.10656e-08
-1.49591e-08
0.00121962
3.33601e-08
-1.55086e-08
0.00121967
3.38676e-08
-1.60747e-08
0.00121972
3.23557e-08
-1.6618e-08
0.00121977
2.87692e-08
-1.71122e-08
0.00121982
2.32244e-08
-1.75438e-08
0.00121986
1.6014e-08
-1.79081e-08
0.0012199
7.59538e-09
-1.8202e-08
0.00121992
-1.42754e-09
-1.84204e-08
0.00121993
-1.03921e-08
-1.85486e-08
0.00121994
-1.85815e-08
-1.85815e-08
0.00121992
-2.53717e-08
-1.8507e-08
0.0012199
-3.02789e-08
-1.8325e-08
0.00121987
-3.30374e-08
-1.8046e-08
0.00121982
-3.36375e-08
-1.76935e-08
0.00121977
-3.23248e-08
-1.73074e-08
0.00121972
-2.95593e-08
-1.69403e-08
0.00121967
-2.59576e-08
-1.66507e-08
0.00121962
-2.22768e-08
-1.64815e-08
0.00121949
-1.93293e-08
-1.64153e-08
0.00121773
-1.50676e-08
-1.60953e-08
0.00119061
-1.22969e-08
0.000891163
1.46366e-08
-1.48915e-08
0.000891146
1.92306e-08
-1.94754e-08
0.00119059
2.28331e-08
-2.02166e-08
0.00121771
2.69426e-08
-2.07961e-08
0.00121946
3.05109e-08
-2.14955e-08
0.00121959
3.27792e-08
-2.2263e-08
0.00121965
3.33006e-08
-2.30283e-08
0.0012197
3.18309e-08
-2.37328e-08
0.00121975
2.83038e-08
-2.4335e-08
0.0012198
2.28288e-08
-2.48133e-08
0.00121984
1.56948e-08
-2.51607e-08
0.00121987
7.35912e-09
-2.53802e-08
0.0012199
-1.57574e-09
-2.54802e-08
0.00121991
-1.04306e-08
-2.54754e-08
0.00121991
-1.8507e-08
-2.53717e-08
0.0012199
-2.51862e-08
-2.51862e-08
0.00121988
-2.99978e-08
-2.49342e-08
0.00121984
-3.26912e-08
-2.46301e-08
0.0012198
-3.32695e-08
-2.42883e-08
0.00121975
-3.19868e-08
-2.39267e-08
0.0012197
-2.93008e-08
-2.35705e-08
0.00121965
-2.58085e-08
-2.32526e-08
0.00121959
-2.22354e-08
-2.3e-08
0.00121947
-1.93709e-08
-2.27941e-08
0.00121771
-1.51377e-08
-2.21892e-08
0.00119059
-1.68135e-08
0.000891147
1.44844e-08
-1.86317e-08
0.000891121
1.88741e-08
-2.4448e-08
0.00119055
2.22765e-08
-2.54022e-08
0.00121767
2.62416e-08
-2.61169e-08
0.00121943
2.97339e-08
-2.69463e-08
0.00121956
3.19952e-08
-2.78278e-08
0.00121961
3.25693e-08
-2.86763e-08
0.00121966
3.11961e-08
-2.94212e-08
0.00121971
2.77922e-08
-3.00138e-08
0.00121976
2.2451e-08
-3.04297e-08
0.00121981
1.54499e-08
-3.06673e-08
0.00121984
7.23939e-09
-3.07414e-08
0.00121986
-1.58276e-09
-3.06775e-08
0.00121988
-1.03354e-08
-3.05182e-08
0.00121988
-1.8325e-08
-3.02789e-08
0.00121987
-2.49342e-08
-2.99978e-08
0.00121984
-2.96949e-08
-2.96949e-08
0.00121981
-3.23586e-08
-2.93777e-08
0.00121977
-3.29296e-08
-2.90414e-08
0.00121972
-3.16636e-08
-2.86769e-08
0.00121967
-2.90163e-08
-2.8284e-08
0.00121961
-2.55768e-08
-2.78775e-08
0.00121956
-2.20629e-08
-2.7483e-08
0.00121943
-1.92753e-08
-2.71001e-08
0.00121768
-1.51296e-08
-2.62473e-08
0.00119056
-1.98183e-08
0.000891123
1.42677e-08
-2.1397e-08
0.000891091
1.84071e-08
-2.81447e-08
0.00119051
2.15881e-08
-2.92339e-08
0.00121763
2.54078e-08
-3.00004e-08
0.00121939
2.8841e-08
-3.08556e-08
0.00121952
3.11278e-08
-3.17333e-08
0.00121957
3.17997e-08
-3.25434e-08
0.00121962
3.05757e-08
-3.32115e-08
0.00121967
2.7348e-08
-3.36888e-08
0.00121972
2.21875e-08
-3.39564e-08
0.00121976
1.53538e-08
-3.40234e-08
0.0012198
7.28552e-09
-3.39192e-08
0.00121982
-1.42634e-09
-3.36857e-08
0.00121983
-1.01028e-08
-3.33835e-08
0.00121983
-1.8046e-08
-3.30374e-08
0.00121982
-2.46301e-08
-3.26912e-08
0.0012198
-2.93777e-08
-3.23586e-08
0.00121977
-3.20304e-08
-3.20304e-08
0.00121972
-3.2587e-08
-3.16783e-08
0.00121968
-3.13036e-08
-3.12678e-08
0.00121962
-2.86419e-08
-3.07813e-08
0.00121957
-2.52007e-08
-3.02295e-08
0.00121952
-2.17151e-08
-2.96542e-08
0.00121939
-1.90219e-08
-2.90893e-08
0.00121764
-1.50315e-08
-2.80704e-08
0.00119052
-2.11987e-08
0.000891093
1.40093e-08
-2.29492e-08
0.000891057
1.78835e-08
-3.02345e-08
0.00119047
2.08512e-08
-3.13617e-08
0.00121759
2.45482e-08
-3.20894e-08
0.00121934
2.79541e-08
-3.28661e-08
0.00121947
3.03048e-08
-3.36311e-08
0.00121952
3.11154e-08
-3.42982e-08
0.00121957
3.00799e-08
-3.47988e-08
0.00121963
2.70616e-08
-3.50927e-08
0.00121967
2.21046e-08
-3.51718e-08
0.00121972
1.54462e-08
-3.50578e-08
0.00121975
7.51118e-09
-3.47932e-08
0.00121977
-1.11681e-09
-3.44309e-08
0.00121979
-9.75411e-09
-3.40363e-08
0.00121979
-1.76935e-08
-3.36375e-08
0.00121977
-2.42883e-08
-3.32695e-08
0.00121975
-2.90414e-08
-3.29296e-08
0.00121972
-3.16783e-08
-3.2587e-08
0.00121968
-3.21914e-08
-3.21914e-08
0.00121963
-3.08431e-08
-3.1692e-08
0.00121958
-2.81149e-08
-3.10674e-08
0.00121953
-2.46353e-08
-3.03421e-08
0.00121947
-2.11754e-08
-2.95905e-08
0.00121935
-1.86129e-08
-2.88848e-08
0.00121759
-1.48409e-08
-2.78167e-08
0.00119047
-2.10868e-08
0.000891059
1.37412e-08
-2.31367e-08
0.000891021
1.73686e-08
-3.05081e-08
0.00119042
2.01592e-08
-3.15731e-08
0.00121754
2.37722e-08
-3.21813e-08
0.00121929
2.71878e-08
-3.27953e-08
0.00121942
2.96357e-08
-3.33675e-08
0.00121947
3.06112e-08
-3.38263e-08
0.00121952
2.97817e-08
-3.41169e-08
0.00121958
2.69794e-08
-3.42135e-08
0.00121962
2.22194e-08
-3.41212e-08
0.00121967
1.57159e-08
-3.38719e-08
0.0012197
7.88167e-09
-3.3515e-08
0.00121972
-7.00346e-10
-3.31055e-08
0.00121973
-9.34089e-09
-3.27027e-08
0.00121973
-1.73074e-08
-3.23248e-08
0.00121972
-2.39267e-08
-3.19868e-08
0.0012197
-2.86769e-08
-3.16636e-08
0.00121967
-3.12678e-08
-3.13036e-08
0.00121962
-3.1692e-08
-3.08431e-08
0.00121958
-3.023e-08
-3.023e-08
0.00121953
-2.74008e-08
-2.94573e-08
0.00121948
-2.38802e-08
-2.85807e-08
0.00121942
-2.0481e-08
-2.77164e-08
0.0012193
-1.80935e-08
-2.69682e-08
0.00121754
-1.45823e-08
-2.59915e-08
0.00119042
-1.98443e-08
0.000891023
1.34986e-08
-2.19512e-08
0.000890985
1.69276e-08
-2.89556e-08
0.00119037
1.9596e-08
-2.98738e-08
0.00121749
2.31685e-08
-3.03077e-08
0.00121924
2.66254e-08
-3.07125e-08
0.00121937
2.91889e-08
-3.10594e-08
0.00121942
3.03332e-08
-3.12974e-08
0.00121947
2.96985e-08
-3.13915e-08
0.00121953
2.70868e-08
-3.13323e-08
0.00121957
2.24861e-08
-3.11375e-08
0.00121961
1.60923e-08
-3.08447e-08
0.00121965
8.31209e-09
-3.05017e-08
0.00121967
-2.61135e-10
-3.01544e-08
0.00121968
-8.93756e-09
-2.98384e-08
0.00121968
-1.69403e-08
-2.95593e-08
0.00121967
-2.35705e-08
-2.93008e-08
0.00121965
-2.8284e-08
-2.90163e-08
0.00121961
-3.07813e-08
-2.86419e-08
0.00121957
-3.10674e-08
-2.81149e-08
0.00121953
-2.94573e-08
-2.74008e-08
0.00121948
-2.65248e-08
-2.65248e-08
0.00121943
-2.3001e-08
-2.55825e-08
0.00121937
-1.97275e-08
-2.4727e-08
0.00121925
-1.75548e-08
-2.40801e-08
0.00121749
-1.43191e-08
-2.33237e-08
0.00119037
-1.79717e-08
0.000890986
1.33104e-08
-1.9601e-08
0.000890949
1.66101e-08
-2.58686e-08
0.00119032
1.92153e-08
-2.65902e-08
0.00121744
2.27857e-08
-2.68363e-08
0.0012192
2.63012e-08
-2.70338e-08
0.00121932
2.89767e-08
-2.71744e-08
0.00121937
3.02657e-08
-2.72306e-08
0.00121942
2.97833e-08
-2.7189e-08
0.00121947
2.73069e-08
-2.7057e-08
0.00121952
2.28043e-08
-2.68606e-08
0.00121956
1.64607e-08
-2.66354e-08
0.0012196
8.68474e-09
-2.64173e-08
0.00121962
8.50457e-11
-2.62327e-08
0.00121963
-8.63031e-09
-2.60834e-08
0.00121963
-1.66507e-08
-2.59576e-08
0.00121962
-2.32526e-08
-2.58085e-08
0.00121959
-2.78775e-08
-2.55768e-08
0.00121956
-3.02295e-08
-2.52007e-08
0.00121952
-3.03421e-08
-2.46353e-08
0.00121947
-2.85807e-08
-2.38802e-08
0.00121942
-2.55825e-08
-2.3001e-08
0.00121937
-2.21242e-08
-2.21242e-08
0.00121932
-1.90537e-08
-2.14205e-08
0.00121919
-1.71756e-08
-2.10103e-08
0.00121744
-1.41415e-08
-2.05867e-08
0.00119032
-1.59799e-08
0.000890949
1.31873e-08
-1.66159e-08
0.000890861
1.6434e-08
-2.19869e-08
0.0011902
1.90279e-08
-2.2518e-08
0.00121731
2.26193e-08
-2.26117e-08
0.00121907
2.61914e-08
-2.26531e-08
0.0012192
2.8952e-08
-2.26506e-08
0.00121925
3.03367e-08
-2.25979e-08
0.0012193
2.99409e-08
-2.25021e-08
0.00121935
2.75256e-08
-2.23842e-08
0.00121939
2.30487e-08
-2.22736e-08
0.00121943
1.66958e-08
-2.21971e-08
0.00121947
8.88521e-09
-2.21711e-08
0.00121949
2.41757e-10
-2.21956e-08
0.0012195
-8.48704e-09
-2.22444e-08
0.0012195
-1.64815e-08
-2.22768e-08
0.00121949
-2.3e-08
-2.22354e-08
0.00121947
-2.7483e-08
-2.20629e-08
0.00121943
-2.96542e-08
-2.17151e-08
0.00121939
-2.95905e-08
-2.11754e-08
0.00121935
-2.77164e-08
-2.0481e-08
0.0012193
-2.4727e-08
-1.97275e-08
0.00121925
-2.14205e-08
-1.90537e-08
0.00121919
-1.86288e-08
-1.86288e-08
0.00121907
-1.70613e-08
-1.85518e-08
0.00121731
-1.4155e-08
-1.84713e-08
0.0011902
-1.43326e-08
0.00089086
1.31112e-08
-1.38434e-08
0.000889632
1.63688e-08
-1.8479e-08
0.0011885
1.89787e-08
-1.8891e-08
0.00121556
2.25905e-08
-1.89201e-08
0.00121731
2.61955e-08
-1.88997e-08
0.00121744
2.89941e-08
-1.88447e-08
0.00121749
3.04096e-08
-1.87636e-08
0.00121754
3.0026e-08
-1.86772e-08
0.00121759
2.75988e-08
-1.86153e-08
0.00121764
2.30887e-08
-1.86086e-08
0.00121768
1.66923e-08
-1.86741e-08
0.00121771
8.84428e-09
-1.88105e-08
0.00121773
1.88012e-10
-1.89969e-08
0.00121774
-8.50858e-09
-1.9187e-08
0.00121774
-1.64153e-08
-1.93293e-08
0.00121773
-2.27941e-08
-1.93709e-08
0.00121771
-2.71001e-08
-1.92753e-08
0.00121768
-2.90893e-08
-1.90219e-08
0.00121764
-2.88848e-08
-1.86129e-08
0.00121759
-2.69682e-08
-1.80935e-08
0.00121754
-2.40801e-08
-1.75548e-08
0.00121749
-2.10103e-08
-1.71756e-08
0.00121744
-1.85518e-08
-1.70613e-08
0.00121731
-1.72583e-08
-1.72583e-08
0.00121556
-1.43936e-08
-1.73853e-08
0.00118849
-1.33515e-08
0.000889631
1.28667e-08
-1.04496e-08
0.000870387
1.60975e-08
-1.40726e-08
0.00116213
1.86835e-08
-1.44033e-08
0.0011885
2.22384e-08
-1.44669e-08
0.0011902
2.57727e-08
-1.44743e-08
0.00119033
2.84983e-08
-1.44426e-08
0.00119037
2.98462e-08
-1.43869e-08
0.00119042
2.94117e-08
-1.4331e-08
0.00119047
2.69665e-08
-1.43041e-08
0.00119052
2.24779e-08
-1.43341e-08
0.00119055
1.61546e-08
-1.44299e-08
0.00119059
8.43979e-09
-1.45816e-08
0.00119061
-2.29051e-11
-1.47633e-08
0.00119062
-8.47089e-09
-1.49341e-08
0.00119062
-1.60953e-08
-1.50676e-08
0.00119061
-2.21892e-08
-1.51377e-08
0.00119059
-2.62473e-08
-1.51296e-08
0.00119056
-2.80704e-08
-1.50315e-08
0.00119052
-2.78167e-08
-1.48409e-08
0.00119047
-2.59915e-08
-1.45823e-08
0.00119042
-2.33237e-08
-1.43191e-08
0.00119037
-2.05867e-08
-1.41415e-08
0.00119032
-1.84713e-08
-1.4155e-08
0.0011902
-1.73853e-08
-1.43936e-08
0.00118849
-1.45073e-08
-1.45073e-08
0.00116213
-1.1024e-08
0.000870386
9.63119e-09
0.00065463
1.22111e-08
0.000870387
1.43386e-08
0.000889633
1.71012e-08
0.000890862
1.9777e-08
0.000890951
2.17946e-08
0.000890988
2.27438e-08
0.000891024
2.23315e-08
0.000891059
2.03885e-08
0.000891093
1.69056e-08
0.000891122
1.20469e-08
0.000891146
6.15894e-09
0.000891163
-2.60092e-10
0.000891171
-6.60938e-09
0.000891171
-1.22969e-08
0.000891163
-1.68135e-08
0.000891147
-1.98183e-08
0.000891123
-2.11987e-08
0.000891093
-2.10868e-08
0.000891059
-1.98443e-08
0.000891023
-1.79717e-08
0.000890986
-1.59799e-08
0.000890949
-1.43326e-08
0.00089086
-1.33515e-08
0.000889631
-1.1024e-08
0.000870386
0.000654629
1.81574e-08
1.81574e-08
0.000654593
2.82517e-08
2.44059e-08
0.00087035
3.72163e-08
2.49412e-08
0.000889596
4.52487e-08
2.50396e-08
0.000890826
5.13058e-08
2.51509e-08
0.000890916
5.46376e-08
2.52944e-08
0.000890955
5.4851e-08
2.54733e-08
0.000890994
5.18364e-08
2.56806e-08
0.000891034
4.57271e-08
2.59045e-08
0.000891071
3.68562e-08
2.61253e-08
0.000891105
2.57328e-08
2.63125e-08
0.000891131
1.29981e-08
2.64484e-08
0.00089115
-6.07338e-10
2.65315e-08
0.00089116
-1.43312e-08
2.6552e-08
0.00089116
-2.73287e-08
2.65069e-08
0.00089115
-3.88205e-08
2.63897e-08
0.000891131
-4.80969e-08
2.62115e-08
0.000891104
-5.45646e-08
2.59941e-08
0.000891071
-5.77977e-08
2.57554e-08
0.000891034
-5.75918e-08
2.55152e-08
0.000890995
-5.40192e-08
2.52936e-08
0.000890956
-4.74891e-08
2.51088e-08
0.000890918
-3.88135e-08
2.49698e-08
0.000890827
-2.91477e-08
2.4866e-08
0.000889598
-1.8596e-08
2.43967e-08
0.000870352
1.82233e-08
0.000654593
2.44059e-08
2.82517e-08
0.00087035
3.76746e-08
3.76746e-08
0.0011621
4.92693e-08
3.85244e-08
0.00118847
5.96527e-08
3.86904e-08
0.00119017
6.74561e-08
3.88969e-08
0.0011903
7.16985e-08
3.91822e-08
0.00119035
7.1877e-08
3.95335e-08
0.0011904
6.78645e-08
3.99384e-08
0.00119046
5.98421e-08
4.03682e-08
0.00119051
4.82431e-08
4.07907e-08
0.00119055
3.37151e-08
4.11671e-08
0.00119059
1.70754e-08
4.14577e-08
0.00119061
-7.18805e-10
4.16302e-08
0.00119062
-1.86767e-08
4.16587e-08
0.00119062
-3.5703e-08
4.15353e-08
0.00119061
-5.07773e-08
4.12713e-08
0.00119059
-6.29617e-08
4.08895e-08
0.00119055
-7.14697e-08
4.04242e-08
0.00119051
-7.57431e-08
3.99193e-08
0.00119046
-7.55216e-08
3.94233e-08
0.0011904
-7.09129e-08
3.89831e-08
0.00119035
-6.24704e-08
3.86343e-08
0.0011903
-5.12891e-08
3.83915e-08
0.00119018
-3.88789e-08
3.82179e-08
0.00118847
-2.50502e-08
3.74412e-08
0.00116211
2.82168e-08
0.000870352
2.49412e-08
3.72163e-08
0.000889596
3.85244e-08
4.92693e-08
0.00118847
5.04201e-08
5.04201e-08
0.00121553
6.10718e-08
5.07066e-08
0.00121728
6.90865e-08
5.10629e-08
0.00121741
7.34566e-08
5.15273e-08
0.00121747
7.36665e-08
5.20881e-08
0.00121752
6.95813e-08
5.27132e-08
0.00121758
6.13812e-08
5.33633e-08
0.00121763
4.95068e-08
5.39897e-08
0.00121767
3.46179e-08
5.45376e-08
0.00121771
1.75525e-08
5.49532e-08
0.00121774
-7.08496e-10
5.51907e-08
0.00121775
-1.91588e-08
5.52172e-08
0.00121775
-3.66628e-08
5.50227e-08
0.00121774
-5.21619e-08
5.4625e-08
0.00121771
-6.4682e-08
5.40605e-08
0.00121767
-7.34098e-08
5.33839e-08
0.00121763
-7.77705e-08
5.26623e-08
0.00121758
-7.75024e-08
5.19663e-08
0.00121752
-7.27262e-08
5.13576e-08
0.00121747
-6.40241e-08
5.08777e-08
0.00121742
-5.25361e-08
5.05386e-08
0.00121729
-3.9823e-08
5.02763e-08
0.00121554
-2.56598e-08
4.92036e-08
0.00118847
3.7351e-08
0.000889598
2.50396e-08
4.52487e-08
0.000890826
3.86904e-08
5.96527e-08
0.00119017
5.07066e-08
6.10718e-08
0.00121728
6.14883e-08
6.14883e-08
0.00121904
6.96192e-08
6.19956e-08
0.00121917
7.40829e-08
6.26428e-08
0.00121923
7.4352e-08
6.3404e-08
0.00121928
7.02828e-08
6.42395e-08
0.00121933
6.20475e-08
6.50948e-08
0.00121939
5.00818e-08
6.59059e-08
0.00121943
3.50474e-08
6.66028e-08
0.00121947
1.77901e-08
6.71203e-08
0.00121949
-6.91533e-10
6.74043e-08
0.00121951
-1.93757e-08
6.74211e-08
0.00121951
-3.71015e-08
6.71651e-08
0.00121949
-5.27858e-08
6.66615e-08
0.00121947
-6.54347e-08
6.596e-08
0.00121943
-7.42212e-08
6.51321e-08
0.00121939
-7.85677e-08
6.42612e-08
0.00121934
-7.82202e-08
6.34304e-08
0.00121928
-7.33168e-08
6.27085e-08
0.00121923
-6.44649e-08
6.21389e-08
0.00121918
-5.28372e-08
6.17301e-08
0.00121905
-4.00355e-08
6.14003e-08
0.00121729
-2.58282e-08
6.00655e-08
0.00119018
4.57198e-08
0.000890828
2.51509e-08
5.13058e-08
0.000890916
3.88969e-08
6.74561e-08
0.0011903
5.10629e-08
6.90865e-08
0.00121741
6.19956e-08
6.96192e-08
0.00121917
7.02661e-08
7.02661e-08
0.0012193
7.48414e-08
7.10753e-08
0.00121936
7.51807e-08
7.20137e-08
0.00121941
7.11279e-08
7.303e-08
0.00121947
6.28461e-08
7.40572e-08
0.00121952
5.07663e-08
7.50179e-08
0.00121956
3.55534e-08
7.58317e-08
0.0012196
1.80651e-08
7.64258e-08
0.00121963
-6.80499e-10
7.67406e-08
0.00121964
-1.96342e-08
7.67481e-08
0.00121964
-3.76083e-08
7.64493e-08
0.00121963
-5.34908e-08
7.58778e-08
0.0012196
-6.62658e-08
7.50961e-08
0.00121956
-7.50954e-08
7.41878e-08
0.00121952
-7.94042e-08
7.32459e-08
0.00121947
-7.89528e-08
7.23588e-08
0.00121941
-7.39031e-08
7.15946e-08
0.00121936
-6.4891e-08
7.09931e-08
0.00121931
-5.31207e-08
7.05579e-08
0.00121918
-4.0225e-08
7.01935e-08
0.00121742
-2.59628e-08
6.86507e-08
0.0011903
5.22857e-08
0.000890919
2.52944e-08
5.46376e-08
0.000890955
3.91822e-08
7.16985e-08
0.00119035
5.15273e-08
7.34566e-08
0.00121747
6.26428e-08
7.40829e-08
0.00121923
7.10753e-08
7.48414e-08
0.00121936
7.57767e-08
7.57767e-08
0.00121941
7.61901e-08
7.68485e-08
0.00121947
7.21451e-08
7.79954e-08
0.00121952
6.37952e-08
7.9141e-08
0.00121957
5.15695e-08
8.01992e-08
0.00121962
3.61389e-08
8.10834e-08
0.00121966
1.83779e-08
8.17183e-08
0.00121968
-6.73343e-10
8.20449e-08
0.0012197
-1.99307e-08
8.20434e-08
0.0012197
-3.81773e-08
8.17228e-08
0.00121968
-5.42696e-08
8.11255e-08
0.00121966
-6.71704e-08
8.03234e-08
0.00121962
-7.6034e-08
7.94072e-08
0.00121957
-8.02917e-08
7.84737e-08
0.00121952
-7.97222e-08
7.76077e-08
0.00121947
-7.45154e-08
7.68714e-08
0.00121941
-6.53371e-08
7.62953e-08
0.00121936
-5.34173e-08
7.58746e-08
0.00121923
-4.04059e-08
7.55023e-08
0.00121747
-2.60577e-08
7.38212e-08
0.00119035
5.62212e-08
0.000890958
2.54733e-08
5.4851e-08
0.000890994
3.95335e-08
7.1877e-08
0.0011904
5.20881e-08
7.36665e-08
0.00121752
6.3404e-08
7.43519e-08
0.00121928
7.20137e-08
7.51807e-08
0.00121941
7.68485e-08
7.61901e-08
0.00121947
7.73333e-08