/*--------------------------------*- C++ -*----------------------------------*\
  =========                 |
  \\      /  F ield         | OpenFOAM: The Open Source CFD Toolbox
   \\    /   O peration     | Website:  https://openfoam.org
    \\  /    A nd           | Version:  7
     \\/     M anipulation  |
\*---------------------------------------------------------------------------*/
FoamFile
{
    version     2.0;
    format      ascii;
    class       volVectorField;
    location    "0.1";
    object      U;
}
// * * * * * * * * * * * * * * * * * * * * * * * * * * * * * * * * * * * * * //

dimensions      [0 1 -1 0 0 0 0];

internalField   nonuniform List<vector> 
31632
(
(1.07535e-06 1.07535e-06 0.116382)
(2.08321e-06 1.45099e-06 0.154737)
(2.18151e-06 1.48421e-06 0.158158)
(2.51478e-06 1.48682e-06 0.158377)
(2.83646e-06 1.48607e-06 0.158392)
(3.05132e-06 1.48459e-06 0.158399)
(3.11202e-06 1.48386e-06 0.158405)
(3.001e-06 1.48492e-06 0.158411)
(2.72025e-06 1.48855e-06 0.158417)
(2.28419e-06 1.49476e-06 0.158422)
(1.71528e-06 1.50328e-06 0.158426)
(1.04124e-06 1.51268e-06 0.158429)
(2.92359e-07 1.521e-06 0.158431)
(-4.95847e-07 1.52652e-06 0.158431)
(-1.28476e-06 1.52754e-06 0.158429)
(-2.0333e-06 1.5236e-06 0.158426)
(-2.69511e-06 1.51441e-06 0.158422)
(-3.22381e-06 1.50014e-06 0.158417)
(-3.5767e-06 1.48208e-06 0.158411)
(-3.72071e-06 1.46236e-06 0.158404)
(-3.64081e-06 1.44353e-06 0.158398)
(-3.34997e-06 1.42789e-06 0.158392)
(-2.90182e-06 1.4164e-06 0.158376)
(-2.41825e-06 1.40742e-06 0.158158)
(-2.15845e-06 1.37633e-06 0.154737)
(-1.07841e-06 1.02081e-06 0.116381)
(1.45099e-06 2.08321e-06 0.154737)
(2.78503e-06 2.78503e-06 0.2066)
(2.88098e-06 2.84272e-06 0.211286)
(3.29494e-06 2.8466e-06 0.211589)
(3.70069e-06 2.84893e-06 0.211611)
(3.9697e-06 2.85457e-06 0.211619)
(4.0404e-06 2.86596e-06 0.211628)
(3.89142e-06 2.884e-06 0.211636)
(3.5264e-06 2.90906e-06 0.211644)
(2.96407e-06 2.93983e-06 0.211651)
(2.2319e-06 2.97333e-06 0.211657)
(1.36263e-06 3.0054e-06 0.211661)
(3.92798e-07 3.03079e-06 0.211663)
(-6.3376e-07 3.04393e-06 0.211663)
(-1.66763e-06 3.04117e-06 0.211661)
(-2.65466e-06 3.02017e-06 0.211657)
(-3.53299e-06 2.98119e-06 0.211651)
(-4.23886e-06 2.92705e-06 0.211644)
(-4.71266e-06 2.86353e-06 0.211636)
(-4.90847e-06 2.79846e-06 0.211627)
(-4.80556e-06 2.74041e-06 0.211619)
(-4.42224e-06 2.6965e-06 0.211611)
(-3.83294e-06 2.66981e-06 0.211589)
(-3.20579e-06 2.65664e-06 0.211286)
(-2.89642e-06 2.60869e-06 0.206599)
(-1.4641e-06 1.9611e-06 0.154737)
(1.48421e-06 2.18151e-06 0.158158)
(2.84272e-06 2.88098e-06 0.211286)
(2.93944e-06 2.93944e-06 0.216097)
(3.36606e-06 2.94898e-06 0.216409)
(3.7855e-06 2.96562e-06 0.216431)
(4.06685e-06 2.9936e-06 0.21644)
(4.1467e-06 3.03392e-06 0.216448)
(4.00233e-06 3.08646e-06 0.216457)
(3.63668e-06 3.14863e-06 0.216465)
(3.06671e-06 3.2162e-06 0.216472)
(2.31886e-06 3.28232e-06 0.216478)
(1.42566e-06 3.33917e-06 0.216482)
(4.2285e-07 3.3786e-06 0.216484)
(-6.4379e-07 3.39191e-06 0.216484)
(-1.72189e-06 3.3756e-06 0.216482)
(-2.75371e-06 3.32764e-06 0.216478)
(-3.67154e-06 3.25143e-06 0.216472)
(-4.4064e-06 3.15502e-06 0.216465)
(-4.89471e-06 3.04981e-06 0.216457)
(-5.08844e-06 2.94888e-06 0.216448)
(-4.96769e-06 2.86456e-06 0.216439)
(-4.55493e-06 2.80558e-06 0.216431)
(-3.9315e-06 2.77452e-06 0.216408)
(-3.27426e-06 2.76483e-06 0.216097)
(-2.96275e-06 2.72277e-06 0.211286)
(-1.50466e-06 2.08268e-06 0.158158)
(1.48682e-06 2.51478e-06 0.158377)
(2.8466e-06 3.29494e-06 0.211589)
(2.94898e-06 3.36606e-06 0.216409)
(3.38711e-06 3.38711e-06 0.216721)
(3.82139e-06 3.42149e-06 0.216743)
(4.11781e-06 3.47426e-06 0.216752)
(4.21255e-06 3.54508e-06 0.216761)
(4.08077e-06 3.63228e-06 0.216769)
(3.72244e-06 3.73086e-06 0.216777)
(3.15263e-06 3.83312e-06 0.216785)
(2.39572e-06 3.92914e-06 0.216791)
(1.48354e-06 4.0076e-06 0.216795)
(4.52051e-07 4.05769e-06 0.216797)
(-6.49876e-07 4.06949e-06 0.216797)
(-1.76551e-06 4.04038e-06 0.216794)
(-2.83284e-06 3.97045e-06 0.21679)
(-3.77854e-06 3.86661e-06 0.216784)
(-4.52924e-06 3.74097e-06 0.216777)
(-5.01878e-06 3.6091e-06 0.216769)
(-5.19909e-06 3.48744e-06 0.21676)
(-5.05316e-06 3.39005e-06 0.216752)
(-4.60921e-06 3.32551e-06 0.216743)
(-3.95614e-06 3.2947e-06 0.216721)
(-3.27857e-06 3.28728e-06 0.216409)
(-2.97004e-06 3.23674e-06 0.211589)
(-1.51367e-06 2.48977e-06 0.158376)
(1.48607e-06 2.83646e-06 0.158392)
(2.84893e-06 3.70069e-06 0.211611)
(2.96562e-06 3.7855e-06 0.216431)
(3.42149e-06 3.82139e-06 0.216743)
(3.87681e-06 3.87681e-06 0.216766)
(4.19489e-06 3.9568e-06 0.216775)
(4.30906e-06 4.06012e-06 0.216783)
(4.19211e-06 4.18231e-06 0.216792)
(3.841e-06 4.31611e-06 0.2168)
(3.26783e-06 4.45076e-06 0.216807)
(2.49542e-06 4.57323e-06 0.216813)
(1.55544e-06 4.66994e-06 0.216817)
(4.85009e-07 4.72839e-06 0.216819)
(-6.61907e-07 4.73882e-06 0.216819)
(-1.8229e-06 4.70003e-06 0.216817)
(-2.93066e-06 4.61461e-06 0.216813)
(-3.90538e-06 4.4929e-06 0.216807)
(-4.66931e-06 4.35062e-06 0.2168)
(-5.15441e-06 4.20645e-06 0.216792)
(-5.31409e-06 4.07874e-06 0.216783)
(-5.13619e-06 3.9816e-06 0.216774)
(-4.65628e-06 3.92205e-06 0.216766)
(-3.97176e-06 3.89812e-06 0.216743)
(-3.275e-06 3.8957e-06 0.216431)
(-2.96811e-06 3.83449e-06 0.211611)
(-1.51591e-06 2.94675e-06 0.158392)
(1.48459e-06 3.05132e-06 0.158399)
(2.85457e-06 3.9697e-06 0.211619)
(2.9936e-06 4.06685e-06 0.21644)
(3.47426e-06 4.11781e-06 0.216752)
(3.9568e-06 4.19489e-06 0.216775)
(4.3013e-06 4.3013e-06 0.216783)
(4.43823e-06 4.43428e-06 0.216792)
(4.33689e-06 4.58754e-06 0.216801)
(3.99099e-06 4.75106e-06 0.216809)
(3.40982e-06 4.91174e-06 0.216816)
(2.61496e-06 5.05437e-06 0.216822)
(1.63873e-06 5.16395e-06 0.216826)
(5.20921e-07 5.22751e-06 0.216828)
(-6.7828e-07 5.23698e-06 0.216828)
(-1.88981e-06 5.19237e-06 0.216826)
(-3.04012e-06 5.09943e-06 0.216822)
(-4.04277e-06 4.97147e-06 0.216816)
(-4.81601e-06 4.82689e-06 0.216809)
(-5.29104e-06 4.68607e-06 0.216801)
(-5.42436e-06 4.56742e-06 0.216792)
(-5.21028e-06 4.48353e-06 0.216783)
(-4.6929e-06 4.43855e-06 0.216775)
(-3.97845e-06 4.42703e-06 0.216752)
(-3.26568e-06 4.43126e-06 0.21644)
(-2.96009e-06 4.35865e-06 0.211619)
(-1.51342e-06 3.33888e-06 0.158398)
(1.48386e-06 3.11202e-06 0.158405)
(2.86596e-06 4.0404e-06 0.211628)
(3.03392e-06 4.1467e-06 0.216448)
(3.54508e-06 4.21255e-06 0.216761)
(4.06012e-06 4.30906e-06 0.216783)
(4.43428e-06 4.43823e-06 0.216792)
(4.59529e-06 4.59529e-06 0.216801)
(4.50888e-06 4.77213e-06 0.21681)
(4.16517e-06 4.95673e-06 0.216818)
(3.57111e-06 5.13423e-06 0.216825)
(2.74761e-06 5.2883e-06 0.216831)
(1.72856e-06 5.40358e-06 0.216835)
(5.58027e-07 5.46788e-06 0.216837)
(-6.97045e-07 5.47566e-06 0.216837)
(-1.96046e-06 5.42843e-06 0.216835)
(-3.15159e-06 5.33514e-06 0.216831)
(-4.17798e-06 5.21157e-06 0.216825)
(-4.9548e-06 5.07772e-06 0.216818)
(-5.41399e-06 4.95413e-06 0.21681)
(-5.51675e-06 4.8576e-06 0.216801)
(-5.26517e-06 4.79774e-06 0.216792)
(-4.71261e-06 4.77463e-06 0.216783)
(-3.97363e-06 4.77886e-06 0.216761)
(-3.25135e-06 4.78955e-06 0.216448)
(-2.94856e-06 4.70549e-06 0.211628)
(-1.50792e-06 3.59109e-06 0.158405)
(1.48492e-06 3.001e-06 0.158411)
(2.884e-06 3.89142e-06 0.211636)
(3.08646e-06 4.00233e-06 0.216457)
(3.63228e-06 4.08077e-06 0.216769)
(4.18231e-06 4.19211e-06 0.216792)
(4.58754e-06 4.33689e-06 0.216801)
(4.77213e-06 4.50888e-06 0.21681)
(4.69831e-06 4.69831e-06 0.216819)
(4.35307e-06 4.89198e-06 0.216827)
(3.74136e-06 5.07418e-06 0.216834)
(2.88429e-06 5.22855e-06 0.21684)
(1.8183e-06 5.3405e-06 0.216844)
(5.92999e-07 5.39973e-06 0.216846)
(-7.17725e-07 5.4035e-06 0.216846)
(-2.03034e-06 5.35542e-06 0.216844)
(-3.25701e-06 5.26718e-06 0.21684)
(-4.30025e-06 5.15634e-06 0.216834)
(-5.07353e-06 5.04334e-06 0.216827)
(-5.51126e-06 4.94732e-06 0.216818)
(-5.58085e-06 4.88212e-06 0.21681)
(-5.29333e-06 4.85315e-06 0.216801)
(-4.71152e-06 4.85551e-06 0.216792)
(-3.95713e-06 4.87566e-06 0.216769)
(-3.23497e-06 4.89034e-06 0.216457)
(-2.93788e-06 4.79609e-06 0.211636)
(-1.50188e-06 3.64626e-06 0.158411)
(1.48855e-06 2.72025e-06 0.158417)
(2.90906e-06 3.5264e-06 0.211644)
(3.14863e-06 3.63668e-06 0.216465)
(3.73086e-06 3.72244e-06 0.216777)
(4.31611e-06 3.841e-06 0.2168)
(4.75106e-06 3.99099e-06 0.216809)
(4.95673e-06 4.16517e-06 0.216818)
(4.89198e-06 4.35307e-06 0.216827)
(4.54103e-06 4.54103e-06 0.216835)
(3.90767e-06 4.71366e-06 0.216843)
(3.01392e-06 4.85564e-06 0.216849)
(1.89973e-06 4.95413e-06 0.216853)
(6.2103e-07 5.00152e-06 0.216855)
(-7.41362e-07 4.99799e-06 0.216855)
(-2.0968e-06 4.9494e-06 0.216853)
(-3.3507e-06 4.86962e-06 0.216848)
(-4.40188e-06 4.7771e-06 0.216843)
(-5.1639e-06 4.6913e-06 0.216835)
(-5.57529e-06 4.62866e-06 0.216827)
(-5.61099e-06 4.59901e-06 0.216818)
(-5.29183e-06 4.60267e-06 0.216809)
(-4.68978e-06 4.62954e-06 0.2168)
(-3.9318e-06 4.66232e-06 0.216778)
(-3.22102e-06 4.6769e-06 0.216465)
(-2.93362e-06 4.57594e-06 0.211644)
(-1.49856e-06 3.46466e-06 0.158417)
(1.49476e-06 2.28419e-06 0.158422)
(2.93983e-06 2.96407e-06 0.211651)
(3.2162e-06 3.06671e-06 0.216472)
(3.83312e-06 3.15263e-06 0.216785)
(4.45076e-06 3.26783e-06 0.216807)
(4.91174e-06 3.40982e-06 0.216816)
(5.13423e-06 3.57111e-06 0.216825)
(5.07418e-06 3.74136e-06 0.216834)
(4.71366e-06 3.90767e-06 0.216843)
(4.05598e-06 4.05598e-06 0.21685)
(3.12475e-06 4.1729e-06 0.216856)
(1.96418e-06 4.24824e-06 0.21686)
(6.3686e-07 4.27743e-06 0.216862)
(-7.69859e-07 4.26355e-06 0.216862)
(-2.15873e-06 4.21419e-06 0.21686)
(-3.42935e-06 4.14481e-06 0.216856)
(-4.47863e-06 4.07345e-06 0.21685)
(-5.22204e-06 4.01729e-06 0.216843)
(-5.60362e-06 3.98911e-06 0.216834)
(-5.60689e-06 3.99404e-06 0.216825)
(-5.26281e-06 4.02704e-06 0.216816)
(-4.65151e-06 4.07339e-06 0.216807)
(-3.90275e-06 4.11311e-06 0.216785)
(-3.21398e-06 4.12327e-06 0.216472)
(-2.94113e-06 4.02129e-06 0.211651)
(-1.50152e-06 3.03007e-06 0.158422)
(1.50328e-06 1.71528e-06 0.158426)
(2.97333e-06 2.2319e-06 0.211657)
(3.28232e-06 2.31886e-06 0.216478)
(3.92914e-06 2.39572e-06 0.216791)
(4.57323e-06 2.49542e-06 0.216813)
(5.05437e-06 2.61496e-06 0.216822)
(5.2883e-06 2.74761e-06 0.216831)
(5.22855e-06 2.88429e-06 0.21684)
(4.85564e-06 3.01392e-06 0.216849)
(4.1729e-06 3.12475e-06 0.216856)
(3.20618e-06 3.20618e-06 0.216862)
(2.00426e-06 3.25106e-06 0.216866)
(6.36341e-07 3.25778e-06 0.216868)
(-8.04613e-07 3.2322e-06 0.216868)
(-2.21556e-06 3.18241e-06 0.216866)
(-3.49148e-06 3.12467e-06 0.216862)
(-4.52945e-06 3.07516e-06 0.216856)
(-5.2483e-06 3.0478e-06 0.216849)
(-5.59859e-06 3.05108e-06 0.21684)
(-5.57309e-06 3.08526e-06 0.216831)
(-5.21248e-06 3.14045e-06 0.216822)
(-4.60336e-06 3.19866e-06 0.216813)
(-3.87555e-06 3.23896e-06 0.21679)
(-3.2171e-06 3.24174e-06 0.216478)
(-2.96219e-06 3.14635e-06 0.211657)
(-1.51144e-06 2.35498e-06 0.158426)
(1.51268e-06 1.04124e-06 0.158429)
(3.0054e-06 1.36263e-06 0.211661)
(3.33917e-06 1.42566e-06 0.216482)
(4.0076e-06 1.48354e-06 0.216795)
(4.66994e-06 1.55544e-06 0.216817)
(5.16395e-06 1.63873e-06 0.216826)
(5.40358e-06 1.72856e-06 0.216835)
(5.3405e-06 1.8183e-06 0.216844)
(4.95413e-06 1.89973e-06 0.216853)
(4.24824e-06 1.96418e-06 0.21686)
(3.25106e-06 2.00426e-06 0.216866)
(2.01578e-06 2.01578e-06 0.216871)
(6.17988e-07 1.99952e-06 0.216873)
(-8.45241e-07 1.96349e-06 0.216873)
(-2.26628e-06 1.91523e-06 0.21687)
(-3.53664e-06 1.87028e-06 0.216866)
(-4.55554e-06 1.84194e-06 0.21686)
(-5.24617e-06 1.84016e-06 0.216853)
(-5.5662e-06 1.86895e-06 0.216844)
(-5.51754e-06 1.92408e-06 0.216835)
(-5.14939e-06 1.99227e-06 0.216826)
(-4.5527e-06 2.0541e-06 0.216817)
(-3.85457e-06 2.08965e-06 0.216794)
(-3.23091e-06 2.0846e-06 0.216482)
(-2.99494e-06 2.00513e-06 0.21166)
(-1.52697e-06 1.48146e-06 0.158429)
(1.521e-06 2.92359e-07 0.158431)
(3.03079e-06 3.92797e-07 0.211663)
(3.3786e-06 4.2285e-07 0.216484)
(4.05769e-06 4.52051e-07 0.216797)
(4.72839e-06 4.85009e-07 0.216819)
(5.22751e-06 5.20921e-07 0.216828)
(5.46788e-06 5.58027e-07 0.216837)
(5.39973e-06 5.92999e-07 0.216846)
(5.00152e-06 6.2103e-07 0.216855)
(4.27743e-06 6.36859e-07 0.216862)
(3.25778e-06 6.36341e-07 0.216868)
(1.99952e-06 6.17987e-07 0.216873)
(5.84054e-07 5.84054e-07 0.216875)
(-8.88917e-07 5.43035e-07 0.216875)
(-2.3088e-06 5.0086e-07 0.216873)
(-3.56481e-06 4.7057e-07 0.216868)
(-4.55962e-06 4.61545e-07 0.216862)
(-5.22133e-06 4.79647e-07 0.216855)
(-5.5147e-06 5.25184e-07 0.216847)
(-5.44977e-06 5.90862e-07 0.216837)
(-5.08243e-06 6.62079e-07 0.216828)
(-4.50577e-06 7.20479e-07 0.216819)
(-3.84171e-06 7.49067e-07 0.216796)
(-3.25272e-06 7.39229e-07 0.216484)
(-3.03401e-06 6.8632e-07 0.211662)
(-1.54518e-06 4.79113e-07 0.158431)
(1.52652e-06 -4.95847e-07 0.158431)
(3.04393e-06 -6.3376e-07 0.211663)
(3.39191e-06 -6.4379e-07 0.216484)
(4.06949e-06 -6.49876e-07 0.216797)
(4.73882e-06 -6.61908e-07 0.216819)
(5.23698e-06 -6.7828e-07 0.216828)
(5.47566e-06 -6.97045e-07 0.216837)
(5.4035e-06 -7.17726e-07 0.216846)
(4.99799e-06 -7.41363e-07 0.216855)
(4.26355e-06 -7.69859e-07 0.216862)
(3.2322e-06 -8.04614e-07 0.216868)
(1.96349e-06 -8.45241e-07 0.216873)
(5.43036e-07 -8.88917e-07 0.216875)
(-9.28443e-07 -9.28443e-07 0.216875)
(-2.33877e-06 -9.59636e-07 0.216873)
(-3.57598e-06 -9.73648e-07 0.216869)
(-4.5465e-06 -9.65222e-07 0.216863)
(-5.18257e-06 -9.32347e-07 0.216855)
(-5.45502e-06 -8.77631e-07 0.216847)
(-5.38066e-06 -8.09758e-07 0.216837)
(-5.01977e-06 -7.42357e-07 0.216828)
(-4.46564e-06 -6.90905e-07 0.216819)
(-3.83458e-06 -6.68123e-07 0.216796)
(-3.27594e-06 -6.76717e-07 0.216484)
(-3.07065e-06 -6.93163e-07 0.211662)
(-1.56188e-06 -5.61601e-07 0.158431)
(1.52754e-06 -1.28476e-06 0.158429)
(3.04117e-06 -1.66763e-06 0.211661)
(3.3756e-06 -1.72189e-06 0.216482)
(4.04038e-06 -1.76551e-06 0.216794)
(4.70003e-06 -1.8229e-06 0.216817)
(5.19237e-06 -1.88981e-06 0.216826)
(5.42843e-06 -1.96046e-06 0.216835)
(5.35542e-06 -2.03034e-06 0.216844)
(4.9494e-06 -2.0968e-06 0.216853)
(4.21419e-06 -2.15873e-06 0.21686)
(3.18241e-06 -2.21556e-06 0.216866)
(1.91523e-06 -2.26628e-06 0.21687)
(5.0086e-07 -2.3088e-06 0.216873)
(-9.59636e-07 -2.33877e-06 0.216873)
(-2.35401e-06 -2.35401e-06 0.216871)
(-3.57042e-06 -2.35057e-06 0.216866)
(-4.51835e-06 -2.32696e-06 0.21686)
(-5.13378e-06 -2.28424e-06 0.216853)
(-5.39215e-06 -2.2267e-06 0.216844)
(-5.31454e-06 -2.16234e-06 0.216835)
(-4.96362e-06 -2.10171e-06 0.216826)
(-4.43162e-06 -2.05621e-06 0.216817)
(-3.82854e-06 -2.03405e-06 0.216794)
(-3.293e-06 -2.03319e-06 0.216482)
(-3.09791e-06 -2.00577e-06 0.211661)
(-1.5749e-06 -1.54372e-06 0.158429)
(1.5236e-06 -2.0333e-06 0.158426)
(3.02017e-06 -2.65466e-06 0.211657)
(3.32764e-06 -2.75371e-06 0.216478)
(3.97045e-06 -2.83284e-06 0.21679)
(4.61461e-06 -2.93066e-06 0.216813)
(5.09943e-06 -3.04013e-06 0.216822)
(5.33514e-06 -3.15159e-06 0.216831)
(5.26718e-06 -3.25701e-06 0.21684)
(4.86962e-06 -3.3507e-06 0.216848)
(4.14481e-06 -3.42935e-06 0.216856)
(3.12467e-06 -3.49148e-06 0.216862)
(1.87028e-06 -3.53664e-06 0.216866)
(4.7057e-07 -3.56481e-06 0.216868)
(-9.73648e-07 -3.57598e-06 0.216869)
(-2.35057e-06 -3.57042e-06 0.216866)
(-3.54894e-06 -3.54894e-06 0.216862)
(-4.4802e-06 -3.51331e-06 0.216856)
(-5.08236e-06 -3.46618e-06 0.216849)
(-5.33317e-06 -3.4112e-06 0.21684)
(-5.25573e-06 -3.35328e-06 0.216831)
(-4.9137e-06 -3.29848e-06 0.216822)
(-4.39821e-06 -3.25341e-06 0.216813)
(-3.81475e-06 -3.22285e-06 0.21679)
(-3.29478e-06 -3.20322e-06 0.216478)
(-3.10927e-06 -3.12836e-06 0.211657)
(-1.58269e-06 -2.3764e-06 0.158426)
(1.51441e-06 -2.69511e-06 0.158422)
(2.98119e-06 -3.53299e-06 0.211651)
(3.25143e-06 -3.67154e-06 0.216472)
(3.86661e-06 -3.77854e-06 0.216784)
(4.4929e-06 -3.90538e-06 0.216807)
(4.97147e-06 -4.04277e-06 0.216816)
(5.21157e-06 -4.17798e-06 0.216825)
(5.15634e-06 -4.30025e-06 0.216834)
(4.7771e-06 -4.40188e-06 0.216843)
(4.07345e-06 -4.47863e-06 0.21685)
(3.07516e-06 -4.52945e-06 0.216856)
(1.84194e-06 -4.55554e-06 0.21686)
(4.61546e-07 -4.55962e-06 0.216862)
(-9.65222e-07 -4.54651e-06 0.216863)
(-2.32696e-06 -4.51835e-06 0.21686)
(-3.51331e-06 -4.4802e-06 0.216856)
(-4.43561e-06 -4.43561e-06 0.21685)
(-5.0317e-06 -4.38692e-06 0.216843)
(-5.27931e-06 -4.33518e-06 0.216834)
(-5.20189e-06 -4.28086e-06 0.216825)
(-4.86382e-06 -4.22522e-06 0.216816)
(-4.35633e-06 -4.17111e-06 0.216807)
(-3.78337e-06 -4.122e-06 0.216785)
(-3.27315e-06 -4.07578e-06 0.216472)
(-3.10103e-06 -3.95589e-06 0.211651)
(-1.58495e-06 -2.9865e-06 0.158422)
(1.50014e-06 -3.22381e-06 0.158417)
(2.92705e-06 -4.23886e-06 0.211644)
(3.15502e-06 -4.4064e-06 0.216465)
(3.74097e-06 -4.52924e-06 0.216777)
(4.35062e-06 -4.66931e-06 0.2168)
(4.82689e-06 -4.81601e-06 0.216809)
(5.07772e-06 -4.9548e-06 0.216818)
(5.04334e-06 -5.07353e-06 0.216827)
(4.6913e-06 -5.1639e-06 0.216835)
(4.01729e-06 -5.22204e-06 0.216843)
(3.0478e-06 -5.2483e-06 0.216849)
(1.84016e-06 -5.24617e-06 0.216853)
(4.79648e-07 -5.22133e-06 0.216855)
(-9.32347e-07 -5.18257e-06 0.216855)
(-2.28424e-06 -5.13378e-06 0.216853)
(-3.46618e-06 -5.08236e-06 0.216849)
(-4.38692e-06 -5.0317e-06 0.216843)
(-4.98195e-06 -4.98195e-06 0.216835)
(-5.22715e-06 -4.93026e-06 0.216827)
(-5.14584e-06 -4.87244e-06 0.216818)
(-4.80404e-06 -4.80603e-06 0.216809)
(-4.29538e-06 -4.73215e-06 0.2168)
(-3.72565e-06 -4.65568e-06 0.216778)
(-3.22283e-06 -4.57875e-06 0.216465)
(-3.07128e-06 -4.4233e-06 0.211644)
(-1.58077e-06 -3.33252e-06 0.158417)
(1.48208e-06 -3.5767e-06 0.158411)
(2.86353e-06 -4.71267e-06 0.211636)
(3.04981e-06 -4.89471e-06 0.216457)
(3.6091e-06 -5.01878e-06 0.216769)
(4.20645e-06 -5.15441e-06 0.216792)
(4.68607e-06 -5.29104e-06 0.216801)
(4.95413e-06 -5.41399e-06 0.21681)
(4.94732e-06 -5.51126e-06 0.216818)
(4.62866e-06 -5.57529e-06 0.216827)
(3.98911e-06 -5.60362e-06 0.216834)
(3.05108e-06 -5.59859e-06 0.21684)
(1.86895e-06 -5.5662e-06 0.216844)
(5.25184e-07 -5.5147e-06 0.216847)
(-8.77631e-07 -5.45502e-06 0.216847)
(-2.2267e-06 -5.39215e-06 0.216844)
(-3.4112e-06 -5.33317e-06 0.21684)
(-4.33518e-06 -5.27931e-06 0.216834)
(-4.93026e-06 -5.22715e-06 0.216827)
(-5.16982e-06 -5.16982e-06 0.216819)
(-5.07771e-06 -5.09961e-06 0.21681)
(-4.72361e-06 -5.01249e-06 0.216801)
(-4.20638e-06 -4.91065e-06 0.216792)
(-3.63657e-06 -4.80312e-06 0.216769)
(-3.14347e-06 -4.69801e-06 0.216457)
(-3.02104e-06 -4.52414e-06 0.211636)
(-1.56894e-06 -3.41527e-06 0.158411)
(1.46236e-06 -3.72071e-06 0.158404)
(2.79846e-06 -4.90847e-06 0.211627)
(2.94888e-06 -5.08844e-06 0.216448)
(3.48744e-06 -5.19909e-06 0.21676)
(4.07874e-06 -5.31409e-06 0.216783)
(4.56742e-06 -5.42436e-06 0.216792)
(4.8576e-06 -5.51675e-06 0.216801)
(4.88212e-06 -5.58085e-06 0.21681)
(4.59901e-06 -5.61099e-06 0.216818)
(3.99404e-06 -5.60689e-06 0.216825)
(3.08526e-06 -5.57309e-06 0.216831)
(1.92408e-06 -5.51754e-06 0.216835)
(5.90862e-07 -5.44978e-06 0.216837)
(-8.09758e-07 -5.38066e-06 0.216837)
(-2.16234e-06 -5.31454e-06 0.216835)
(-3.35328e-06 -5.25573e-06 0.216831)
(-4.28086e-06 -5.20189e-06 0.216825)
(-4.87244e-06 -5.14584e-06 0.216818)
(-5.09961e-06 -5.07771e-06 0.21681)
(-4.98852e-06 -4.98852e-06 0.216801)
(-4.61514e-06 -4.87549e-06 0.216792)
(-4.08635e-06 -4.74471e-06 0.216783)
(-3.51912e-06 -4.61132e-06 0.216761)
(-3.04342e-06 -4.48959e-06 0.216448)
(-2.9576e-06 -4.31948e-06 0.211628)
(-1.54996e-06 -3.28024e-06 0.158405)
(1.44353e-06 -3.64081e-06 0.158398)
(2.74041e-06 -4.80556e-06 0.211619)
(2.86457e-06 -4.96769e-06 0.216439)
(3.39005e-06 -5.05316e-06 0.216752)
(3.9816e-06 -5.13619e-06 0.216774)
(4.48353e-06 -5.21028e-06 0.216783)
(4.79774e-06 -5.26517e-06 0.216792)
(4.85315e-06 -5.29333e-06 0.216801)
(4.60267e-06 -5.29183e-06 0.216809)
(4.02704e-06 -5.26282e-06 0.216816)
(3.14045e-06 -5.21248e-06 0.216822)
(1.99227e-06 -5.14939e-06 0.216826)
(6.6208e-07 -5.08243e-06 0.216828)
(-7.42357e-07 -5.01977e-06 0.216828)
(-2.10171e-06 -4.96362e-06 0.216826)
(-3.29848e-06 -4.9137e-06 0.216822)
(-4.22522e-06 -4.86382e-06 0.216816)
(-4.80603e-06 -4.80404e-06 0.216809)
(-5.01249e-06 -4.72361e-06 0.216801)
(-4.87549e-06 -4.61514e-06 0.216792)
(-4.47983e-06 -4.47983e-06 0.216784)
(-3.94246e-06 -4.32964e-06 0.216775)
(-3.38647e-06 -4.18632e-06 0.216752)
(-2.93946e-06 -4.0684e-06 0.21644)
(-2.89567e-06 -3.92401e-06 0.211619)
(-1.52875e-06 -3.00669e-06 0.158398)
(1.42789e-06 -3.34997e-06 0.158392)
(2.6965e-06 -4.42224e-06 0.211611)
(2.80558e-06 -4.55493e-06 0.216431)
(3.32551e-06 -4.60921e-06 0.216743)
(3.92205e-06 -4.65628e-06 0.216766)
(4.43855e-06 -4.6929e-06 0.216775)
(4.77463e-06 -4.71261e-06 0.216783)
(4.85551e-06 -4.71152e-06 0.216792)
(4.62954e-06 -4.68978e-06 0.2168)
(4.07339e-06 -4.65151e-06 0.216807)
(3.19866e-06 -4.60336e-06 0.216813)
(2.0541e-06 -4.5527e-06 0.216817)
(7.20479e-07 -4.50577e-06 0.216819)
(-6.90905e-07 -4.46564e-06 0.216819)
(-2.05621e-06 -4.43162e-06 0.216817)
(-3.25341e-06 -4.39821e-06 0.216813)
(-4.17111e-06 -4.35633e-06 0.216807)
(-4.73215e-06 -4.29538e-06 0.2168)
(-4.91065e-06 -4.20638e-06 0.216792)
(-4.74471e-06 -4.08635e-06 0.216783)
(-4.32964e-06 -3.94246e-06 0.216775)
(-3.793e-06 -3.793e-06 0.216766)
(-3.26176e-06 -3.66414e-06 0.216743)
(-2.8549e-06 -3.57442e-06 0.216431)
(-2.85612e-06 -3.47545e-06 0.211611)
(-1.51568e-06 -2.68707e-06 0.158392)
(1.4164e-06 -2.90182e-06 0.158376)
(2.66981e-06 -3.83294e-06 0.211589)
(2.77452e-06 -3.9315e-06 0.216408)
(3.2947e-06 -3.95614e-06 0.216721)
(3.89812e-06 -3.97177e-06 0.216743)
(4.42703e-06 -3.97845e-06 0.216752)
(4.77886e-06 -3.97363e-06 0.216761)
(4.87566e-06 -3.95713e-06 0.216769)
(4.66232e-06 -3.9318e-06 0.216778)
(4.11311e-06 -3.90275e-06 0.216785)
(3.23896e-06 -3.87555e-06 0.21679)
(2.08965e-06 -3.85457e-06 0.216794)
(7.49067e-07 -3.84171e-06 0.216796)
(-6.68122e-07 -3.83458e-06 0.216796)
(-2.03405e-06 -3.82854e-06 0.216794)
(-3.22285e-06 -3.81475e-06 0.21679)
(-4.122e-06 -3.78337e-06 0.216785)
(-4.65568e-06 -3.72565e-06 0.216778)
(-4.80312e-06 -3.63657e-06 0.216769)
(-4.61132e-06 -3.51912e-06 0.216761)
(-4.18632e-06 -3.38647e-06 0.216752)
(-3.66414e-06 -3.26176e-06 0.216743)
(-3.17097e-06 -3.17097e-06 0.216721)
(-2.8145e-06 -3.12909e-06 0.216408)
(-2.85889e-06 -3.08841e-06 0.211589)
(-1.52024e-06 -2.39988e-06 0.158376)
(1.40742e-06 -2.41825e-06 0.158158)
(2.65664e-06 -3.20579e-06 0.211286)
(2.76483e-06 -3.27426e-06 0.216097)
(3.28728e-06 -3.27857e-06 0.216409)
(3.8957e-06 -3.275e-06 0.216431)
(4.43126e-06 -3.26568e-06 0.21644)
(4.78955e-06 -3.25135e-06 0.216448)
(4.89034e-06 -3.23497e-06 0.216457)
(4.6769e-06 -3.22102e-06 0.216465)
(4.12327e-06 -3.21398e-06 0.216472)
(3.24174e-06 -3.2171e-06 0.216478)
(2.0846e-06 -3.23091e-06 0.216482)
(7.39229e-07 -3.25272e-06 0.216484)
(-6.76717e-07 -3.27594e-06 0.216484)
(-2.03319e-06 -3.293e-06 0.216482)
(-3.20322e-06 -3.29478e-06 0.216478)
(-4.07578e-06 -3.27315e-06 0.216472)
(-4.57875e-06 -3.22283e-06 0.216465)
(-4.69801e-06 -3.14347e-06 0.216457)
(-4.48959e-06 -3.04342e-06 0.216448)
(-4.0684e-06 -2.93946e-06 0.21644)
(-3.57442e-06 -2.8549e-06 0.216431)
(-3.12909e-06 -2.8145e-06 0.216408)
(-2.82979e-06 -2.82979e-06 0.216097)
(-2.90913e-06 -2.84153e-06 0.211286)
(-1.5452e-06 -2.20023e-06 0.158158)
(1.37633e-06 -2.15845e-06 0.154737)
(2.60869e-06 -2.89642e-06 0.206599)
(2.72277e-06 -2.96275e-06 0.211286)
(3.23674e-06 -2.97004e-06 0.211589)
(3.83449e-06 -2.96811e-06 0.211611)
(4.35865e-06 -2.96009e-06 0.211619)
(4.70549e-06 -2.94856e-06 0.211628)
(4.79609e-06 -2.93788e-06 0.211636)
(4.57594e-06 -2.93362e-06 0.211644)
(4.02129e-06 -2.94113e-06 0.211651)
(3.14635e-06 -2.96219e-06 0.211657)
(2.00513e-06 -2.99494e-06 0.21166)
(6.8632e-07 -3.03401e-06 0.211662)
(-6.93163e-07 -3.07065e-06 0.211662)
(-2.00577e-06 -3.09791e-06 0.211661)
(-3.12836e-06 -3.10927e-06 0.211657)
(-3.95589e-06 -3.10103e-06 0.211651)
(-4.4233e-06 -3.07128e-06 0.211644)
(-4.52414e-06 -3.02104e-06 0.211636)
(-4.31948e-06 -2.9576e-06 0.211628)
(-3.92401e-06 -2.89567e-06 0.211619)
(-3.47545e-06 -2.85612e-06 0.211611)
(-3.08841e-06 -2.85889e-06 0.211589)
(-2.84153e-06 -2.90913e-06 0.211286)
(-2.9317e-06 -2.9317e-06 0.206599)
(-1.551e-06 -2.23487e-06 0.154737)
(1.02081e-06 -1.07841e-06 0.116381)
(1.9611e-06 -1.4641e-06 0.154737)
(2.08268e-06 -1.50466e-06 0.158158)
(2.48977e-06 -1.51367e-06 0.158376)
(2.94675e-06 -1.51591e-06 0.158392)
(3.33888e-06 -1.51342e-06 0.158398)
(3.59109e-06 -1.50792e-06 0.158405)
(3.64626e-06 -1.50188e-06 0.158411)
(3.46466e-06 -1.49856e-06 0.158417)
(3.03007e-06 -1.50152e-06 0.158422)
(2.35498e-06 -1.51144e-06 0.158426)
(1.48146e-06 -1.52697e-06 0.158429)
(4.79113e-07 -1.54518e-06 0.158431)
(-5.61601e-07 -1.56188e-06 0.158431)
(-1.54372e-06 -1.5749e-06 0.158429)
(-2.3764e-06 -1.58269e-06 0.158426)
(-2.9865e-06 -1.58495e-06 0.158422)
(-3.33252e-06 -1.58077e-06 0.158417)
(-3.41527e-06 -1.56894e-06 0.158411)
(-3.28024e-06 -1.54996e-06 0.158405)
(-3.00669e-06 -1.52875e-06 0.158398)
(-2.68707e-06 -1.51568e-06 0.158392)
(-2.39988e-06 -1.52024e-06 0.158376)
(-2.20023e-06 -1.5452e-06 0.158158)
(-2.23487e-06 -1.551e-06 0.154737)
(-1.16866e-06 -1.16866e-06 0.116381)
(1.69043e-06 1.69043e-06 0.116374)
(3.95225e-06 2.28788e-06 0.154732)
(5.25453e-06 2.34398e-06 0.158153)
(6.62838e-06 2.35456e-06 0.158372)
(7.778e-06 2.36509e-06 0.158388)
(8.54068e-06 2.37791e-06 0.158395)
(8.82782e-06 2.39351e-06 0.158401)
(8.60181e-06 2.41178e-06 0.158408)
(7.86609e-06 2.43176e-06 0.158415)
(6.65896e-06 2.45206e-06 0.15842)
(5.04846e-06 2.47082e-06 0.158425)
(3.12717e-06 2.48516e-06 0.158428)
(1.00227e-06 2.49241e-06 0.15843)
(-1.20113e-06 2.49238e-06 0.15843)
(-3.35394e-06 2.48469e-06 0.158428)
(-5.33097e-06 2.47272e-06 0.158425)
(-7.0086e-06 2.45841e-06 0.158421)
(-8.28082e-06 2.44278e-06 0.158415)
(-9.06481e-06 2.42699e-06 0.158409)
(-9.30885e-06 2.41194e-06 0.158402)
(-9.00104e-06 2.39832e-06 0.158395)
(-8.17748e-06 2.38656e-06 0.158389)
(-6.93165e-06 2.37657e-06 0.158373)
(-5.45377e-06 2.36698e-06 0.158155)
(-4.05941e-06 2.3169e-06 0.154733)
(-1.73434e-06 1.71623e-06 0.116375)
(2.28788e-06 3.95225e-06 0.154732)
(5.29786e-06 5.29786e-06 0.206599)
(6.97866e-06 5.41877e-06 0.211287)
(8.75729e-06 5.44036e-06 0.21159)
(1.02443e-05 5.4658e-06 0.211612)
(1.12239e-05 5.50008e-06 0.211621)
(1.1582e-05 5.54334e-06 0.21163)
(1.12724e-05 5.59369e-06 0.21164)
(1.03017e-05 5.64804e-06 0.211648)
(8.72058e-06 5.702e-06 0.211656)
(6.61583e-06 5.75046e-06 0.211662)
(4.10495e-06 5.78777e-06 0.211667)
(1.32599e-06 5.80903e-06 0.211669)
(-1.55909e-06 5.812e-06 0.211669)
(-4.38089e-06 5.7953e-06 0.211667)
(-6.97441e-06 5.76234e-06 0.211662)
(-9.17788e-06 5.71644e-06 0.211656)
(-1.08509e-05 5.6613e-06 0.211649)
(-1.1884e-05 5.60177e-06 0.21164)
(-1.22099e-05 5.54315e-06 0.211631)
(-1.1815e-05 5.49064e-06 0.211623)
(-1.07491e-05 5.44842e-06 0.211614)
(-9.13662e-06 5.41815e-06 0.211592)
(-7.22892e-06 5.39567e-06 0.211289)
(-5.45342e-06 5.28751e-06 0.206602)
(-2.36195e-06 3.9607e-06 0.154733)
(2.34398e-06 5.25453e-06 0.158153)
(5.41877e-06 6.97866e-06 0.211287)
(7.13803e-06 7.13803e-06 0.216099)
(8.9635e-06 7.17351e-06 0.21641)
(1.04905e-05 7.21771e-06 0.216433)
(1.14979e-05 7.27702e-06 0.216442)
(1.18693e-05 7.34932e-06 0.216452)
(1.15566e-05 7.431e-06 0.216461)
(1.05662e-05 7.51676e-06 0.21647)
(8.94876e-06 7.59978e-06 0.216478)
(6.79269e-06 7.67238e-06 0.216484)
(4.21825e-06 7.72738e-06 0.216489)
(1.36615e-06 7.75893e-06 0.216491)
(-1.59763e-06 7.76213e-06 0.216491)
(-4.4984e-06 7.73547e-06 0.216489)
(-7.16538e-06 7.6806e-06 0.216484)
(-9.43062e-06 7.60229e-06 0.216478)
(-1.11486e-05 7.50799e-06 0.21647)
(-1.22064e-05 7.40671e-06 0.216462)
(-1.25354e-05 7.30789e-06 0.216453)
(-1.21226e-05 7.22017e-06 0.216444)
(-1.10214e-05 7.14993e-06 0.216435)
(-9.36131e-06 7.09967e-06 0.216413)
(-7.3997e-06 7.06201e-06 0.216101)
(-5.59309e-06 6.91465e-06 0.21129)
(-2.43071e-06 5.23705e-06 0.158155)
(2.35456e-06 6.62838e-06 0.158372)
(5.44036e-06 8.75729e-06 0.21159)
(7.17351e-06 8.9635e-06 0.21641)
(9.01892e-06 9.01892e-06 0.216723)
(1.05664e-05 9.08687e-06 0.216745)
(1.1591e-05 9.17482e-06 0.216755)
(1.19751e-05 9.2794e-06 0.216764)
(1.16693e-05 9.39541e-06 0.216774)
(1.06779e-05 9.51522e-06 0.216783)
(9.05053e-06 9.62975e-06 0.21679)
(6.87535e-06 9.72894e-06 0.216797)
(4.27357e-06 9.80309e-06 0.216801)
(1.38745e-06 9.8442e-06 0.216804)
(-1.6141e-06 9.84666e-06 0.216804)
(-4.55221e-06 9.80927e-06 0.216801)
(-7.25234e-06 9.73536e-06 0.216797)
(-9.54309e-06 9.63184e-06 0.216791)
(-1.12763e-05 9.50893e-06 0.216783)
(-1.23378e-05 9.37858e-06 0.216774)
(-1.26591e-05 9.25298e-06 0.216765)
(-1.22293e-05 9.14264e-06 0.216757)
(-1.1105e-05 9.05475e-06 0.216748)
(-9.42037e-06 8.9916e-06 0.216725)
(-7.43764e-06 8.94219e-06 0.216413)
(-5.62918e-06 8.74916e-06 0.211593)
(-2.45072e-06 6.65351e-06 0.158374)
(2.36509e-06 7.778e-06 0.158388)
(5.4658e-06 1.02443e-05 0.211612)
(7.21771e-06 1.04905e-05 0.216433)
(9.08687e-06 1.05664e-05 0.216745)
(1.06586e-05 1.06586e-05 0.216768)
(1.17039e-05 1.07751e-05 0.216778)
(1.21034e-05 1.09115e-05 0.216787)
(1.18053e-05 1.10603e-05 0.216797)
(1.08121e-05 1.12119e-05 0.216806)
(9.17211e-06 1.13547e-05 0.216814)
(6.97329e-06 1.14766e-05 0.21682)
(4.33799e-06 1.15663e-05 0.216824)
(1.4111e-06 1.16145e-05 0.216827)
(-1.63448e-06 1.16159e-05 0.216827)
(-4.61502e-06 1.15703e-05 0.216824)
(-7.35142e-06 1.14824e-05 0.21682)
(-9.6686e-06 1.13614e-05 0.216814)
(-1.14158e-05 1.12197e-05 0.216806)
(-1.24779e-05 1.10715e-05 0.216797)
(-1.27875e-05 1.09307e-05 0.216788)
(-1.23368e-05 1.08085e-05 0.21678)
(-1.11867e-05 1.07118e-05 0.216771)
(-9.47645e-06 1.06422e-05 0.216748)
(-7.47296e-06 1.05858e-05 0.216436)
(-5.65813e-06 1.03544e-05 0.211615)
(-2.46355e-06 7.88248e-06 0.15839)
(2.37791e-06 8.54068e-06 0.158395)
(5.50008e-06 1.12239e-05 0.211621)
(7.27702e-06 1.14979e-05 0.216442)
(9.17482e-06 1.1591e-05 0.216755)
(1.07751e-05 1.17039e-05 0.216778)
(1.18445e-05 1.18445e-05 0.216787)
(1.22609e-05 1.20067e-05 0.216797)
(1.19702e-05 1.21814e-05 0.216806)
(1.09727e-05 1.23573e-05 0.216815)
(9.31565e-06 1.25209e-05 0.216823)
(7.08728e-06 1.26588e-05 0.216829)
(4.4116e-06 1.27588e-05 0.216834)
(1.43708e-06 1.28111e-05 0.216836)
(-1.65838e-06 1.28117e-05 0.216836)
(-4.68597e-06 1.27616e-05 0.216834)
(-7.4617e-06 1.26666e-05 0.216829)
(-9.80644e-06 1.25378e-05 0.216823)
(-1.1567e-05 1.23892e-05 0.216816)
(-1.26276e-05 1.22361e-05 0.216807)