/*--------------------------------*- C++ -*----------------------------------*\
  =========                 |
  \\      /  F ield         | OpenFOAM: The Open Source CFD Toolbox
   \\    /   O peration     | Website:  https://openfoam.org
    \\  /    A nd           | Version:  7
     \\/     M anipulation  |
\*---------------------------------------------------------------------------*/
FoamFile
{
    version     2.0;
    format      ascii;
    class       surfaceScalarField;
    location    "0.3";
    object      phi;
}
// * * * * * * * * * * * * * * * * * * * * * * * * * * * * * * * * * * * * * //

dimensions      [0 3 -1 0 0 0 0];

internalField   nonuniform List<scalar> 
91004
(
4.76908e-09
4.76908e-09
0.000293923
8.08876e-09
8.38406e-09
0.000537423
1.02712e-08
9.12972e-09
0.000596887
1.21232e-08
9.23659e-09
0.000607134
1.35982e-08
9.26053e-09
0.000608516
1.44596e-08
9.28409e-09
0.000608686
1.45413e-08
9.32258e-09
0.000608724
1.37746e-08
9.38119e-09
0.000608749
1.21725e-08
9.45971e-09
0.000608772
9.81132e-09
9.55214e-09
0.000608793
6.81686e-09
9.64752e-09
0.00060881
3.35256e-09
9.73204e-09
0.000608821
-3.89638e-10
9.79167e-09
0.000608827
-4.19506e-09
9.81481e-09
0.000608827
-7.8377e-09
9.79636e-09
0.000608821
-1.10877e-08
9.73765e-09
0.000608809
-1.37272e-08
9.64703e-09
0.000608793
-1.55682e-08
9.53794e-09
0.000608772
-1.64755e-08
9.42691e-09
0.00060875
-1.63933e-08
9.32984e-09
0.000608725
-1.53747e-08
9.25787e-09
0.000608688
-1.36049e-08
9.21258e-09
0.000608517
-1.13721e-08
9.17816e-09
0.000607136
-8.79615e-09
9.06888e-09
0.000596889
-5.10391e-09
8.34854e-09
0.000537424
4.84311e-09
0.000293924
8.38406e-09
8.08876e-09
0.000537423
1.44085e-08
1.44085e-08
0.0010001
1.80517e-08
1.57734e-08
0.0011147
2.10002e-08
1.60057e-08
0.00113462
2.33127e-08
1.60997e-08
0.00113733
2.46104e-08
1.62189e-08
0.00113766
2.46197e-08
1.63857e-08
0.00113773
2.32309e-08
1.65994e-08
0.00113778
2.04719e-08
1.68497e-08
0.00113782
1.64683e-08
1.71163e-08
0.00113786
1.14211e-08
1.73718e-08
0.00113789
5.58714e-09
1.75845e-08
0.00113792
-7.30586e-10
1.77237e-08
0.00113793
-7.19028e-09
1.77641e-08
0.00113793
-1.34207e-08
1.76949e-08
0.00113792
-1.90345e-08
1.75188e-08
0.00113789
-2.36519e-08
1.72541e-08
0.00113786
-2.69337e-08
1.69329e-08
0.00113782
-2.86264e-08
1.65959e-08
0.00113778
-2.86141e-08
1.62849e-08
0.00113774
-2.69767e-08
1.60349e-08
0.00113767
-2.40352e-08
1.58634e-08
0.00113733
-2.02867e-08
1.5751e-08
0.00113463
-1.58394e-08
1.55307e-08
0.0011147
-9.06367e-09
1.42386e-08
0.0010001
8.10629e-09
0.000537425
9.12972e-09
1.02712e-08
0.000596887
1.57734e-08
1.80517e-08
0.0011147
1.97515e-08
1.97515e-08
0.00124346
2.29425e-08
2.0091e-08
0.00126591
2.54418e-08
2.0279e-08
0.00126897
2.68464e-08
2.05228e-08
0.00126934
2.68584e-08
2.08453e-08
0.00126943
2.53564e-08
2.12358e-08
0.00126948
2.23649e-08
2.16718e-08
0.00126953
1.80141e-08
2.21184e-08
0.00126957
1.25146e-08
2.2531e-08
0.0012696
6.13962e-09
2.28628e-08
0.00126963
-7.84192e-10
2.30691e-08
0.00126964
-7.88534e-09
2.31152e-08
0.00126964
-1.47515e-08
2.29888e-08
0.00126963
-2.09492e-08
2.26967e-08
0.0012696
-2.60509e-08
2.22696e-08
0.00126957
-2.9674e-08
2.17581e-08
0.00126953
-3.15341e-08
2.12248e-08
0.00126948
-3.15048e-08
2.0734e-08
0.00126943
-2.96821e-08
2.0339e-08
0.00126935
-2.64331e-08
2.00681e-08
0.00126897
-2.23171e-08
1.98979e-08
0.00126591
-1.74396e-08
1.96096e-08
0.00124346
-9.95707e-09
1.79951e-08
0.0011147
1.03284e-08
0.00059689
9.23659e-09
1.21232e-08
0.000607134
1.60057e-08
2.10002e-08
0.00113462
2.0091e-08
2.29425e-08
0.00126591
2.33869e-08
2.33869e-08
0.00128882
2.59867e-08
2.36867e-08
0.00129194
2.74762e-08
2.4069e-08
0.00129233
2.75458e-08
2.45541e-08
0.00129241
2.6063e-08
2.51234e-08
0.00129247
2.30419e-08
2.574e-08
0.00129251
1.86065e-08
2.63547e-08
0.00129256
1.29654e-08
2.69086e-08
0.00129259
6.3968e-09
2.73415e-08
0.00129262
-7.58766e-10
2.76e-08
0.00129263
-8.1119e-09
2.76457e-08
0.00129263
-1.52232e-08
2.74696e-08
0.00129262
-2.16322e-08
2.7087e-08
0.00129259
-2.68866e-08
2.65428e-08
0.00129256
-3.05861e-08
2.59044e-08
0.00129252
-3.24397e-08
2.52516e-08
0.00129247
-3.23285e-08
2.46625e-08
0.00129241
-3.03695e-08
2.41983e-08
0.00129233
-2.69635e-08
2.38881e-08
0.00129195
-2.2708e-08
2.36988e-08
0.00128883
-1.77289e-08
2.33658e-08
0.00126592
-1.01281e-08
2.14686e-08
0.00113463
1.2407e-08
0.000607137
9.26053e-09
1.35982e-08
0.000608516
1.60997e-08
2.33127e-08
0.00113733
2.0279e-08
2.54418e-08
0.00126897
2.36867e-08
2.59867e-08
0.00129194
2.64004e-08
2.64004e-08
0.00129507
2.79945e-08
2.69207e-08
0.00129546
2.81445e-08
2.75615e-08
0.00129554
2.67037e-08
2.82943e-08
0.0012956
2.36744e-08
2.90706e-08
0.00129565
1.91716e-08
2.98282e-08
0.00129569
1.34026e-08
3.04968e-08
0.00129573
6.65329e-09
3.10078e-08
0.00129575
-7.1836e-10
3.13032e-08
0.00129576
-8.30204e-09
3.13471e-08
0.00129576
-1.56267e-08
3.11368e-08
0.00129575
-2.22051e-08
3.06991e-08
0.00129573
-2.7562e-08
3.00925e-08
0.00129569
-3.12848e-08
2.9398e-08
0.00129565
-3.30837e-08
2.87061e-08
0.0012956
-3.28551e-08
2.81002e-08
0.00129555
-3.07443e-08
2.76405e-08
0.00129547
-2.71874e-08
2.7349e-08
0.00129508
-2.28174e-08
2.71783e-08
0.00129195
-1.77823e-08
2.682e-08
0.00126897
-1.01588e-08
2.46504e-08
0.00113733
1.42696e-08
0.000608519
9.28409e-09
1.44596e-08
0.000608686
1.62189e-08
2.46104e-08
0.00113766
2.05228e-08
2.68464e-08
0.00126934
2.4069e-08
2.74762e-08
0.00129233
2.69207e-08
2.79945e-08
0.00129546
2.86364e-08
2.86364e-08
0.00129585
2.88759e-08
2.94091e-08
0.00129593
2.74759e-08
3.02738e-08
0.00129599
2.44255e-08
3.11724e-08
0.00129604
1.98326e-08
3.20332e-08
0.00129608
1.39059e-08
3.27787e-08
0.00129612
6.94332e-09
3.33366e-08
0.00129614
-6.74871e-10
3.365e-08
0.00129615
-8.51171e-09
3.369e-08
0.00129615
-1.60615e-08
3.34621e-08
0.00129614
-2.28077e-08
3.30056e-08
0.00129612
-2.82536e-08
3.23906e-08
0.00129608
-3.19776e-08
3.17072e-08
0.00129604
-3.36968e-08
3.10498e-08
0.00129599
-3.33296e-08
3.04992e-08
0.00129594
-3.10542e-08
3.01066e-08
0.00129585
-2.73434e-08
2.98808e-08
0.00129547
-2.286e-08
2.97583e-08
0.00129234
-1.77663e-08
2.93937e-08
0.00126935
-1.01286e-08
2.70042e-08
0.00113767
1.56074e-08
0.00060869
9.32258e-09
1.45413e-08
0.000608724
1.63857e-08
2.46197e-08
0.00113773
2.08453e-08
2.68584e-08
0.00126943
2.45541e-08
2.75458e-08
0.00129241
2.75615e-08
2.81445e-08
0.00129554
2.94091e-08
2.88759e-08
0.00129593
2.97382e-08
2.97382e-08
0.00129602
2.83695e-08
3.06854e-08
0.00129607
2.52794e-08
3.16522e-08
0.00129612
2.05711e-08
3.25617e-08
0.00129616
1.44582e-08
3.33343e-08
0.0012962
7.25526e-09
3.38992e-08
0.00129622
-6.31425e-10
3.42055e-08
0.00129624
-8.73243e-09
3.42346e-08
0.00129624
-1.65073e-08
3.40018e-08
0.00129622
-2.34102e-08
3.35579e-08
0.0012962
-2.89256e-08
3.29816e-08
0.00129616
-3.26285e-08
3.23664e-08
0.00129612
-3.42484e-08
3.18037e-08
0.00129607
-3.37317e-08
3.13643e-08
0.00129602
-3.12927e-08
3.10845e-08
0.00129594
-2.74384e-08
3.09555e-08
0.00129555
-2.28526e-08
3.08975e-08
0.00129242
-1.76999e-08
3.05435e-08
0.00126943
-1.00501e-08
2.80345e-08
0.00113774
1.61526e-08
0.000608727
9.38119e-09
1.37746e-08
0.000608749
1.65994e-08
2.32309e-08
0.00113778
2.12358e-08
2.53564e-08
0.00126948
2.51234e-08
2.6063e-08
0.00129247
2.82943e-08
2.67037e-08
0.0012956
3.02738e-08
2.74759e-08
0.00129599
3.06854e-08
2.83695e-08
0.00129607
2.93339e-08
2.93339e-08
0.00129613
2.61849e-08
3.03007e-08
0.00129618
2.134e-08
3.1193e-08
0.00129622
1.50219e-08
3.19343e-08
0.00129625
7.56527e-09
3.246e-08
0.00129628
-5.94372e-10
3.27296e-08
0.00129629
-8.95233e-09
3.27361e-08
0.00129629
-1.69347e-08
3.25054e-08
0.00129628
-2.39688e-08
3.20973e-08
0.00129625
-2.95252e-08
3.15949e-08
0.00129622
-3.31816e-08
3.10897e-08
0.00129618
-3.46869e-08
3.06632e-08
0.00129613
-3.402e-08
3.03708e-08
0.00129607
-3.14325e-08
3.02288e-08
0.00129599
-2.74608e-08
3.02087e-08
0.0012956
-2.27974e-08
3.02175e-08
0.00129247
-1.75952e-08
2.98881e-08
0.00126948
-9.9368e-09
2.73981e-08
0.00113779
1.57282e-08
0.000608752
9.45971e-09
1.21725e-08
0.000608772
1.68497e-08
2.04719e-08
0.00113782
2.16718e-08
2.23649e-08
0.00126953
2.574e-08
2.30419e-08
0.00129251
2.90706e-08
2.36744e-08
0.00129565
3.11724e-08
2.44255e-08
0.00129604
3.16522e-08
2.52794e-08
0.00129612
3.03007e-08
2.61849e-08
0.00129618
2.70759e-08
2.70759e-08
0.00129623
2.20806e-08
2.78802e-08
0.00129627
1.55503e-08
2.85293e-08
0.0012963
7.84264e-09
2.89692e-08
0.00129633
-5.76154e-10
2.91719e-08
0.00129634
-9.16587e-09
2.91428e-08
0.00129634
-1.7322e-08
2.89165e-08
0.00129633
-2.44497e-08
2.85591e-08
0.0012963
-3.00123e-08
2.81532e-08
0.00129627
-3.35967e-08
2.7782e-08
0.00129623
-3.49776e-08
2.75123e-08
0.00129618
-3.41701e-08
2.73797e-08
0.00129612
-3.14618e-08
2.73785e-08
0.00129604
-2.74115e-08
2.74614e-08
0.00129565
-2.2707e-08
2.7527e-08
0.00129252
-1.74737e-08
2.72343e-08
0.00126953
-9.81039e-09
2.49268e-08
0.00113783
1.42549e-08
0.000608774
9.55214e-09
9.81132e-09
0.000608793
1.71163e-08
1.64683e-08
0.00113786
2.21184e-08
1.80141e-08
0.00126957
2.63547e-08
1.86065e-08
0.00129256
2.98282e-08
1.91716e-08
0.00129569
3.20332e-08
1.98326e-08
0.00129608
3.25617e-08
2.05711e-08
0.00129616
3.1193e-08
2.134e-08
0.00129622
2.78802e-08
2.20806e-08
0.00129627
2.27306e-08
2.27306e-08
0.00129631
1.59948e-08
2.32333e-08
0.00129635
8.05501e-09
2.35481e-08
0.00129637
-5.91978e-10
2.36601e-08
0.00129639
-9.37277e-09
2.35859e-08
0.00129639
-1.76566e-08
2.3366e-08
0.00129637
-2.48331e-08
2.30682e-08
0.00129635
-3.03648e-08
2.27693e-08
0.00129631
-3.3855e-08
2.25393e-08
0.00129627
-3.51089e-08
2.24267e-08
0.00129622
-3.41796e-08
2.24456e-08
0.00129617
-3.13874e-08
2.25691e-08
0.00129608
-2.73053e-08
2.27344e-08
0.00129569
-2.26032e-08
2.28397e-08
0.00129256
-1.73634e-08
2.25963e-08
0.00126957
-9.69671e-09
2.06408e-08
0.00113786
1.17583e-08
0.000608794
9.64752e-09
6.81686e-09
0.00060881
1.73718e-08
1.14211e-08
0.00113789
2.2531e-08
1.25146e-08
0.0012696
2.69086e-08
1.29654e-08
0.00129259
3.04968e-08
1.34026e-08
0.00129573
3.27787e-08
1.39059e-08
0.00129612
3.33343e-08
1.44582e-08
0.0012962
3.19343e-08
1.50219e-08
0.00129625
2.85293e-08
1.55503e-08
0.0012963
2.32333e-08
1.59948e-08
0.00129635
1.63133e-08
1.63133e-08
0.00129638
8.17568e-09
1.64792e-08
0.00129641
-6.54073e-10
1.64897e-08
0.00129642
-9.57385e-09
1.637e-08
0.00129642
-1.79325e-08
1.61618e-08
0.00129641
-2.51109e-08
1.59298e-08
0.00129638
-3.05777e-08
1.57393e-08
0.00129635
-3.39579e-08
1.56438e-08
0.00129631
-3.50906e-08
1.56719e-08
0.00129626
-3.40655e-08
1.58173e-08
0.0012962
-3.1231e-08
1.6036e-08
0.00129612
-2.71651e-08
1.62557e-08
0.00129573
-2.25083e-08
1.63825e-08
0.00129259
-1.72889e-08
1.62038e-08
0.0012696
-9.61765e-09
1.47592e-08
0.00113789
8.37093e-09
0.00060881
9.73204e-09
3.35256e-09
0.000608821
1.75845e-08
5.58714e-09
0.00113792
2.28628e-08
6.13962e-09
0.00126963
2.73415e-08
6.39679e-09
0.00129262
3.10078e-08
6.65329e-09
0.00129575
3.33366e-08
6.94332e-09
0.00129614
3.38992e-08
7.25526e-09
0.00129622
3.246e-08
7.56527e-09
0.00129628
2.89692e-08
7.84264e-09
0.00129633
2.35481e-08
8.05501e-09
0.00129637
1.64792e-08
8.17568e-09
0.00129641
8.19109e-09
8.19109e-09
0.00129643
-7.66327e-10
8.10734e-09
0.00129645
-9.76642e-09
7.95383e-09
0.00129645
-1.81463e-08
7.76887e-09
0.00129643
-2.52837e-08
7.60795e-09
0.00129641
-3.06591e-08
7.52135e-09
0.00129637
-3.39229e-08
7.544e-09
0.00129633
-3.49481e-08
7.68573e-09
0.00129628
-3.38577e-08
7.9236e-09
0.00129623
-3.10216e-08
8.20295e-09
0.00129614
-2.70143e-08
8.44996e-09
0.00129575
-2.24392e-08
8.58572e-09
0.00129262
-1.72646e-08
8.49123e-09
0.00126963
-9.58668e-09
7.68766e-09
0.00113791
4.32624e-09
0.000608821
9.79167e-09
-3.89639e-10
0.000608827
1.77237e-08
-7.30587e-10
0.00113793
2.30691e-08
-7.84194e-10
0.00126964
2.76e-08
-7.58767e-10
0.00129263
3.13032e-08
-7.18362e-10
0.00129576
3.365e-08
-6.74873e-10
0.00129615
3.42055e-08
-6.31427e-10
0.00129624
3.27296e-08
-5.94374e-10
0.00129629
2.91719e-08
-5.76156e-10
0.00129634
2.36601e-08
-5.9198e-10
0.00129639
1.64897e-08
-6.54075e-10
0.00129642
8.10734e-09
-7.66329e-10
0.00129645
-9.17898e-10
-9.17899e-10
0.00129646
-9.94092e-09
-1.07925e-09
0.00129646
-1.82941e-08
-1.22344e-09
0.00129645
-2.53571e-08
-1.3084e-09
0.00129642
-3.06262e-08
-1.2995e-09
0.00129639
-3.37778e-08
-1.18026e-09
0.00129634
-3.47159e-08
-9.56613e-10
0.00129629
-3.35909e-08
-6.6105e-10
0.00129624
-3.07873e-08
-3.50711e-10
0.00129615
-2.68696e-08
-9.38908e-11
0.00129576
-2.24008e-08
4.87873e-11
0.00129263
-1.72909e-08
6.11384e-11
0.00126964
-9.60632e-09
-1.74155e-11
0.00113793
-6.24494e-11
0.000608827
9.81481e-09
-4.19506e-09
0.000608827
1.77641e-08
-7.19028e-09
0.00113793
2.31152e-08
-7.88535e-09
0.00126964
2.76457e-08
-8.1119e-09
0.00129263
3.13471e-08
-8.30204e-09
0.00129576
3.369e-08
-8.51171e-09
0.00129615
3.42346e-08
-8.73244e-09
0.00129624
3.27361e-08
-8.95233e-09
0.00129629
2.91428e-08
-9.16587e-09
0.00129634
2.35859e-08
-9.37278e-09
0.00129639
1.637e-08
-9.57385e-09
0.00129642
7.95383e-09
-9.76642e-09
0.00129645
-1.07925e-09
-9.94092e-09
0.00129646
-1.00781e-08
-1.00781e-08
0.00129646
-1.8369e-08
-1.01587e-08
0.00129645
-2.53404e-08
-1.01594e-08
0.00129642
-3.05035e-08
-1.00646e-08
0.00129639
-3.35575e-08
-9.87194e-09
0.00129634
-3.44322e-08
-9.5966e-09
0.00129629
-3.32989e-08
-9.27373e-09
0.00129624
-3.05496e-08
-8.95466e-09
0.00129615
-2.6734e-08
-8.69547e-09
0.00129576
-2.23812e-08
-8.53056e-09
0.00129263
-1.73509e-08
-8.38348e-09
0.00126964
-9.66738e-09
-7.70849e-09
0.00113793
-4.43285e-09
0.000608827
9.79636e-09
-7.8377e-09
0.000608821
1.76949e-08
-1.34207e-08
0.00113792
2.29888e-08
-1.47515e-08
0.00126963
2.74696e-08
-1.52232e-08
0.00129262
3.11368e-08
-1.56267e-08
0.00129575
3.34621e-08
-1.60615e-08
0.00129614
3.40018e-08
-1.65073e-08
0.00129622
3.25054e-08
-1.69347e-08
0.00129628
2.89165e-08
-1.7322e-08
0.00129633
2.3366e-08
-1.76566e-08
0.00129637
1.61618e-08
-1.79325e-08
0.00129641
7.76887e-09
-1.81463e-08
0.00129643
-1.22344e-09
-1.82941e-08
0.00129645
-1.01587e-08
-1.8369e-08
0.00129645
-1.83662e-08
-1.83662e-08
0.00129644
-2.52413e-08
-1.82801e-08
0.00129641
-3.03088e-08
-1.81104e-08
0.00129638
-3.32858e-08
-1.78644e-08
0.00129633
-3.412e-08
-1.75592e-08
0.00129628
-3.29966e-08
-1.7224e-08
0.00129623
-3.031e-08
-1.6898e-08
0.00129614
-2.65971e-08
-1.66224e-08
0.00129575
-2.23587e-08
-1.64107e-08
0.00129262
-1.74209e-08
-1.6107e-08
0.00126963
-9.75638e-09
-1.47196e-08
0.00113791
-8.42174e-09
0.000608821
9.73765e-09
-1.10877e-08
0.000608809
1.75188e-08
-1.90345e-08
0.00113789
2.26967e-08
-2.09492e-08
0.0012696
2.7087e-08
-2.16322e-08
0.00129259
3.06991e-08
-2.22051e-08
0.00129573
3.30056e-08
-2.28077e-08
0.00129612
3.35579e-08
-2.34102e-08
0.0012962
3.20973e-08
-2.39688e-08
0.00129625
2.85591e-08
-2.44497e-08
0.0012963
2.30682e-08
-2.48331e-08
0.00129635
1.59298e-08
-2.51109e-08
0.00129638
7.60795e-09
-2.52837e-08
0.00129641
-1.3084e-09
-2.53571e-08
0.00129642
-1.01594e-08
-2.53404e-08
0.00129642
-1.82801e-08
-2.52413e-08
0.00129641
-2.50704e-08
-2.50704e-08
0.00129639
-3.00632e-08
-2.48374e-08
0.00129635
-3.29862e-08
-2.45523e-08
0.00129631
-3.37972e-08
-2.4227e-08
0.00129626
-3.26891e-08
-2.38784e-08
0.0012962
-3.00574e-08
-2.35307e-08
0.00129612
-2.64314e-08
-2.32113e-08
0.00129573
-2.22977e-08
-2.29208e-08
0.00129259
-1.74665e-08
-2.24482e-08
0.0012696
-9.85236e-09
-2.04571e-08
0.00113789
-1.17073e-08
0.00060881
9.64703e-09
-1.37272e-08
0.000608793
1.72541e-08
-2.36519e-08
0.00113786
2.22696e-08
-2.60509e-08
0.00126957
2.65428e-08
-2.68866e-08
0.00129256
3.00925e-08
-2.7562e-08
0.00129569
3.23906e-08
-2.82536e-08
0.00129608
3.29816e-08
-2.89256e-08
0.00129616
3.15949e-08
-2.95252e-08
0.00129622
2.81532e-08
-3.00123e-08
0.00129627
2.27693e-08
-3.03648e-08
0.00129631
1.57393e-08
-3.05777e-08
0.00129635
7.52135e-09
-3.06591e-08
0.00129637
-1.2995e-09
-3.06262e-08
0.00129639
-1.00646e-08
-3.05035e-08
0.00129639
-1.81104e-08
-3.03088e-08
0.00129638
-2.48374e-08
-3.00633e-08
0.00129635
-2.97798e-08
-2.97798e-08
0.00129632
-3.26676e-08
-2.94641e-08
0.00129627
-3.34622e-08
-2.91168e-08
0.00129622
-3.23613e-08
-2.874e-08
0.00129617
-2.97638e-08
-2.83439e-08
0.00129608
-2.62002e-08
-2.79473e-08
0.00129569
-2.21593e-08
-2.75481e-08
0.00129256
-1.74523e-08
-2.69107e-08
0.00126957
-9.93006e-09
-2.44834e-08
0.00113786
-1.40528e-08
0.000608794
9.53794e-09
-1.55682e-08
0.000608772
1.69329e-08
-2.69338e-08
0.00113782
2.17581e-08
-2.9674e-08
0.00126953
2.59044e-08
-3.05861e-08
0.00129252
2.9398e-08
-3.12848e-08
0.00129565
3.17072e-08
-3.19776e-08
0.00129604
3.23664e-08
-3.26285e-08
0.00129612
3.10897e-08
-3.31816e-08
0.00129618
2.7782e-08
-3.35967e-08
0.00129623
2.25393e-08
-3.3855e-08
0.00129627
1.56438e-08
-3.39579e-08
0.00129631
7.54401e-09
-3.39229e-08
0.00129633
-1.18026e-09
-3.37778e-08
0.00129634
-9.87194e-09
-3.35575e-08
0.00129634
-1.78644e-08
-3.32858e-08
0.00129633
-2.45523e-08
-3.29862e-08
0.00129631
-2.94641e-08
-3.26676e-08
0.00129627
-3.23253e-08
-3.23253e-08
0.00129623
-3.30976e-08
-3.19466e-08
0.00129618
-3.19839e-08
-3.152e-08
0.00129612
-2.93927e-08
-3.10472e-08
0.00129604
-2.58663e-08
-3.05466e-08
0.00129565
-2.19091e-08
-3.00244e-08
0.00129252
-1.73444e-08
-2.92499e-08
0.00126953
-9.96021e-09
-2.65912e-08
0.00113783
-1.534e-08
0.000608774
9.42691e-09
-1.64755e-08
0.00060875
1.65959e-08
-2.86264e-08
0.00113778
2.12248e-08
-3.15341e-08
0.00126948
2.52516e-08
-3.24397e-08
0.00129247
2.87061e-08
-3.30837e-08
0.0012956
3.10498e-08
-3.36968e-08
0.00129599
3.18037e-08
-3.42484e-08
0.00129607
3.06632e-08
-3.46869e-08
0.00129613
2.75123e-08
-3.49776e-08
0.00129618
2.24267e-08
-3.51089e-08
0.00129622
1.56719e-08
-3.50906e-08
0.00129626
7.68573e-09
-3.49481e-08
0.00129628
-9.56611e-10
-3.47159e-08
0.00129629
-9.5966e-09
-3.44322e-08
0.00129629
-1.75592e-08
-3.412e-08
0.00129628
-2.4227e-08
-3.37972e-08
0.00129626
-2.91168e-08
-3.34622e-08
0.00129622
-3.19466e-08
-3.30976e-08
0.00129618
-3.26786e-08
-3.26786e-08
0.00129613
-3.15253e-08
-3.21858e-08
0.00129608
-2.8913e-08
-3.16207e-08
0.00129599
-2.54055e-08
-3.10108e-08
0.0012956
-2.15294e-08
-3.03806e-08
0.00129247
-1.71218e-08
-2.95242e-08
0.00126948
-9.91738e-09
-2.68447e-08
0.00113779
-1.55848e-08
0.000608751
9.32984e-09
-1.63933e-08
0.000608725
1.62849e-08
-2.86141e-08
0.00113774
2.0734e-08
-3.15048e-08
0.00126943
2.46625e-08
-3.23285e-08
0.00129241
2.81002e-08
-3.28551e-08
0.00129555
3.04992e-08
-3.33296e-08
0.00129594
3.13643e-08
-3.37317e-08
0.00129602
3.03708e-08
-3.402e-08
0.00129607
2.73797e-08
-3.41701e-08
0.00129612
2.24456e-08
-3.41796e-08
0.00129617
1.58173e-08
-3.40655e-08
0.0012962
7.9236e-09
-3.38577e-08
0.00129623
-6.61048e-10
-3.35909e-08
0.00129624
-9.27373e-09
-3.32989e-08
0.00129624
-1.7224e-08
-3.29966e-08
0.00129623
-2.38784e-08
-3.26891e-08
0.0012962
-2.874e-08
-3.23613e-08
0.00129617
-3.152e-08
-3.19839e-08
0.00129612
-3.21858e-08
-3.15253e-08
0.00129608
-3.0967e-08
-3.0967e-08
0.00129602
-2.83164e-08
-3.03203e-08
0.00129594
-2.48246e-08
-2.96302e-08
0.00129555
-2.10374e-08
-2.89438e-08
0.00129242
-1.67945e-08
-2.80874e-08
0.00126943
-9.79565e-09
-2.55696e-08
0.00113774
-1.49333e-08
0.000608726
9.25787e-09
-1.53747e-08
0.000608688
1.60349e-08
-2.69767e-08
0.00113767
2.0339e-08
-2.96821e-08
0.00126935
2.41983e-08
-3.03695e-08
0.00129233
2.76405e-08
-3.07443e-08
0.00129547
3.01066e-08
-3.10542e-08
0.00129585
3.10845e-08
-3.12927e-08
0.00129594
3.02288e-08
-3.14325e-08
0.00129599
2.73785e-08
-3.14618e-08
0.00129604
2.25691e-08
-3.13874e-08
0.00129608
1.6036e-08
-3.1231e-08
0.00129612
8.20295e-09
-3.10216e-08
0.00129614
-3.50709e-10
-3.07873e-08
0.00129615
-8.95466e-09
-3.05496e-08
0.00129615
-1.6898e-08
-3.031e-08
0.00129614
-2.35307e-08
-3.00574e-08
0.00129612
-2.83439e-08
-2.97638e-08
0.00129608
-3.10472e-08
-2.93927e-08
0.00129604
-3.16207e-08
-2.8913e-08
0.00129599
-3.03203e-08
-2.83164e-08
0.00129594
-2.76319e-08
-2.76319e-08
0.00129586
-2.41724e-08
-2.69264e-08
0.00129547
-2.04941e-08
-2.62668e-08
0.00129233
-1.64163e-08
-2.55061e-08
0.00126935
-9.62272e-09
-2.3276e-08
0.00113767
-1.36303e-08
0.000608688
9.21258e-09
-1.36049e-08
0.000608517
1.58634e-08
-2.40352e-08
0.00113733
2.00681e-08
-2.64331e-08
0.00126897
2.38881e-08
-2.69635e-08
0.00129195
2.7349e-08
-2.71874e-08
0.00129508
2.98808e-08
-2.73434e-08
0.00129547
3.09555e-08
-2.74384e-08
0.00129555
3.02087e-08
-2.74608e-08
0.0012956
2.74614e-08
-2.74115e-08
0.00129565
2.27344e-08
-2.73053e-08
0.00129569
1.62557e-08
-2.71651e-08
0.00129573
8.44996e-09
-2.70143e-08
0.00129575
-9.38893e-11
-2.68696e-08
0.00129576
-8.69546e-09
-2.6734e-08
0.00129576
-1.66224e-08
-2.65971e-08
0.00129575
-2.32113e-08
-2.64314e-08
0.00129573
-2.79473e-08
-2.62002e-08
0.00129569
-3.05466e-08
-2.58663e-08
0.00129565
-3.10108e-08
-2.54055e-08
0.0012956
-2.96302e-08
-2.48246e-08
0.00129555
-2.69264e-08
-2.41724e-08
0.00129547
-2.35346e-08
-2.35346e-08
0.00129508
-1.99946e-08
-2.29907e-08
0.00129195
-1.60854e-08
-2.24088e-08
0.00126897
-9.46038e-09
-2.0523e-08
0.00113733
-1.19664e-08
0.000608517
9.17816e-09
-1.13721e-08
0.000607136
1.5751e-08
-2.02867e-08
0.00113463
1.98979e-08
-2.23171e-08
0.00126591
2.36988e-08
-2.2708e-08
0.00128883
2.71783e-08
-2.28174e-08
0.00129195
2.97583e-08
-2.286e-08
0.00129234
3.08975e-08
-2.28526e-08
0.00129242
3.02175e-08
-2.27974e-08
0.00129247
2.7527e-08
-2.2707e-08
0.00129252
2.28397e-08
-2.26032e-08
0.00129256
1.63825e-08
-2.25083e-08
0.00129259
8.58572e-09
-2.24392e-08
0.00129262
4.87888e-11
-2.24008e-08
0.00129263
-8.53055e-09
-2.23812e-08
0.00129263
-1.64107e-08
-2.23587e-08
0.00129262
-2.29208e-08
-2.22977e-08
0.00129259
-2.75481e-08
-2.21593e-08
0.00129256
-3.00244e-08
-2.19091e-08
0.00129252
-3.03806e-08
-2.15294e-08
0.00129247
-2.89438e-08
-2.10374e-08
0.00129242
-2.62668e-08
-2.04941e-08
0.00129233
-2.29907e-08
-1.99946e-08
0.00129195
-1.96255e-08
-1.96255e-08
0.00128882
-1.58842e-08
-1.92639e-08
0.00126591
-9.3756e-09
-1.77185e-08
0.00113462
-1.01923e-08
0.000607135
9.06888e-09
-8.79615e-09
0.000596889
1.55307e-08
-1.58394e-08
0.0011147
1.96096e-08
-1.74396e-08
0.00124346
2.33658e-08
-1.77289e-08
0.00126592
2.682e-08
-1.77823e-08
0.00126897
2.93937e-08
-1.77663e-08
0.00126935
3.05435e-08
-1.76999e-08
0.00126943
2.98881e-08
-1.75952e-08
0.00126948
2.72343e-08
-1.74737e-08
0.00126953
2.25963e-08
-1.73634e-08
0.00126957
1.62038e-08
-1.72889e-08
0.0012696
8.49123e-09
-1.72646e-08
0.00126963
6.11399e-11
-1.72909e-08
0.00126964
-8.38347e-09
-1.73509e-08
0.00126964
-1.6107e-08
-1.74209e-08
0.00126963
-2.24482e-08
-1.74665e-08
0.0012696
-2.69107e-08
-1.74523e-08
0.00126957
-2.92499e-08
-1.73444e-08
0.00126953
-2.95242e-08
-1.71218e-08
0.00126948
-2.80874e-08
-1.67945e-08
0.00126943
-2.55061e-08
-1.64163e-08
0.00126935
-2.24088e-08
-1.60854e-08
0.00126897
-1.92639e-08
-1.58842e-08
0.00126591
-1.5713e-08
-1.5713e-08
0.00124346
-9.33265e-09
-1.45255e-08
0.0011147
-8.23689e-09
0.000596888
8.34854e-09
-5.10391e-09
0.000537424
1.42386e-08
-9.06367e-09
0.0010001
1.79951e-08
-9.95707e-09
0.0011147
2.14686e-08
-1.01281e-08
0.00113463
2.46504e-08
-1.01588e-08
0.00113733
2.70042e-08
-1.01286e-08
0.00113767
2.80345e-08
-1.00501e-08
0.00113774
2.73981e-08
-9.9368e-09
0.00113779
2.49268e-08
-9.81039e-09
0.00113783
2.06408e-08
-9.69671e-09
0.00113786
1.47592e-08
-9.61765e-09
0.00113789
7.68767e-09
-9.58668e-09
0.00113791
-1.74141e-11
-9.60632e-09
0.00113793
-7.70848e-09
-9.66738e-09
0.00113793
-1.47196e-08
-9.75638e-09
0.00113791
-2.04571e-08
-9.85236e-09
0.00113789
-2.44834e-08
-9.93006e-09
0.00113786
-2.65912e-08
-9.96021e-09
0.00113783
-2.68447e-08
-9.91738e-09
0.00113779
-2.55696e-08
-9.79565e-09
0.00113774
-2.3276e-08
-9.62272e-09
0.00113767
-2.0523e-08
-9.46038e-09
0.00113733
-1.77185e-08
-9.3756e-09
0.00113462
-1.45255e-08
-9.33265e-09
0.0011147
-8.70459e-09
-8.70459e-09
0.0010001
-5.00666e-09
0.000537424
4.84311e-09
0.000293924
8.10629e-09
0.000537425
1.03284e-08
0.00059689
1.2407e-08
0.000607137
1.42696e-08
0.000608519
1.56074e-08
0.00060869
1.61526e-08
0.000608727
1.57282e-08
0.000608752
1.42549e-08
0.000608774
1.17583e-08
0.000608794
8.37093e-09
0.00060881
4.32624e-09
0.000608821
-6.24487e-11
0.000608827
-4.43285e-09
0.000608827
-8.42174e-09
0.000608821
-1.17073e-08
0.00060881
-1.40528e-08
0.000608794
-1.534e-08
0.000608774
-1.55848e-08
0.000608751
-1.49333e-08
0.000608726
-1.36303e-08
0.000608688
-1.19664e-08
0.000608517
-1.01923e-08
0.000607135
-8.23689e-09
0.000596888
-5.00666e-09
0.000537424
0.000293923
6.74007e-09
6.74007e-09
0.000293909
1.36715e-08
1.21153e-08
0.000537404
1.94303e-08
1.32499e-08
0.000596868
2.43594e-08
1.34272e-08
0.000607115
2.81921e-08
1.3492e-08
0.000608498
3.05064e-08
1.35768e-08
0.00060867
3.10142e-08
1.36937e-08
0.00060871
2.96009e-08
1.3836e-08
0.000608737
2.63112e-08
1.3992e-08
0.000608762
2.13267e-08
1.4147e-08
0.000608784
1.49468e-08
1.42842e-08
0.000608802
7.56433e-09
1.43878e-08
0.000608814
-3.58738e-10
1.44465e-08
0.000608821
-8.32665e-09
1.44552e-08
0.000608821
-1.5826e-08
1.4415e-08
0.000608814
-2.23718e-08
1.43358e-08
0.000608802
-2.7535e-08
1.4232e-08
0.000608784
-3.09739e-08
1.41191e-08
0.000608762
-3.2467e-08
1.40123e-08
0.000608737
-3.19434e-08
1.39239e-08
0.00060871
-2.95106e-08
1.38619e-08
0.000608671
-2.5476e-08
1.38277e-08
0.0006085
-2.03038e-08
1.38005e-08
0.000607117
-1.43068e-08
1.36407e-08
0.00059687
-7.11558e-09
1.25009e-08
0.000537405
7.03759e-09
0.00029391
1.21153e-08
1.36715e-08
0.000537404
2.42957e-08
2.42957e-08
0.00100008
3.38003e-08
2.65852e-08
0.00111468
4.17059e-08
2.69781e-08
0.0011346
4.77677e-08
2.71362e-08
0.00113731
5.13252e-08
2.73335e-08
0.00113765
5.19167e-08
2.75935e-08
0.00113772
4.93678e-08
2.79022e-08
0.00113777
4.3762e-08
2.82348e-08
0.00113782
3.5401e-08
2.85621e-08
0.00113786
2.47691e-08
2.88512e-08
0.00113789
1.24963e-08
2.90704e-08
0.00113791
-6.78655e-10
2.91945e-08
0.00113793
-1.39572e-08
2.92084e-08
0.00113792
-2.6507e-08
2.91107e-08
0.00113791
-3.75288e-08
2.8915e-08
0.00113789
-4.63032e-08
2.86458e-08
0.00113786
-5.22474e-08
2.83343e-08
0.00113782
-5.49728e-08
2.80155e-08
0.00113777
-5.43415e-08
2.77235e-08
0.00113772
-5.05197e-08
2.74861e-08
0.00113765
-4.40179e-08
2.73183e-08
0.00113731
-3.5598e-08
2.71894e-08
0.0011346
-2.56081e-08
2.68216e-08
0.00111468
-1.29037e-08
2.45687e-08
0.00100008
1.39393e-08
0.000537405
1.32499e-08
1.94303e-08
0.000596868
2.65852e-08
3.38003e-08
0.00111468
3.68777e-08
3.68777e-08
0.00124344
4.53957e-08
3.74604e-08
0.00126589
5.19169e-08
3.77369e-08
0.00126895
5.57314e-08
3.80667e-08
0.00126933
5.63408e-08
3.84808e-08
0.00126941
5.35569e-08
3.89572e-08
0.00126947
4.74691e-08
3.94605e-08
0.00126952
3.84008e-08
3.99482e-08
0.00126957
2.68709e-08
4.03745e-08
0.0012696
1.3556e-08
4.06953e-08
0.00126963
-7.4767e-10
4.08749e-08
0.00126964
-1.51781e-08
4.08906e-08
0.00126964
-2.88304e-08
4.07388e-08
0.00126963
-4.08332e-08
4.04353e-08
0.0012696
-5.03991e-08
4.0013e-08
0.00126957
-5.68889e-08
3.95179e-08
0.00126952
-5.98766e-08
3.90029e-08
0.00126947
-5.92118e-08
3.8521e-08
0.00126942
-5.50798e-08
3.81167e-08
0.00126933
-4.80456e-08
3.78151e-08
0.00126895
-3.89478e-08
3.7579e-08
0.0012659
-2.8132e-08
3.70402e-08
0.00124344
-1.42108e-08
3.40196e-08
0.00111468
1.96488e-08
0.00059687
1.34272e-08
2.43594e-08
0.000607115
2.69782e-08
4.17059e-08
0.0011346
3.74604e-08
4.53957e-08
0.00126589
4.61574e-08
4.61574e-08
0.0012888
5.28327e-08
4.6567e-08
0.00129193
5.67574e-08
4.70423e-08
0.00129232
5.74183e-08
4.76161e-08
0.0012924
5.46181e-08
4.82598e-08
0.00129246
4.84418e-08
4.89275e-08
0.00129251
3.92133e-08
4.95652e-08
0.00129256
2.74578e-08
5.01154e-08
0.0012926
1.3865e-08
5.05245e-08
0.00129262
-7.49217e-10
5.07493e-08
0.00129264
-1.54994e-08
5.07641e-08
0.00129264
-2.94532e-08
5.05665e-08
0.00129262
-4.1713e-08
5.01772e-08
0.0012926
-5.14691e-08
4.96384e-08
0.00129256
-5.80661e-08
4.90088e-08
0.00129251
-6.10716e-08
4.83548e-08
0.00129246
-6.03396e-08
4.77418e-08
0.0012924
-5.60713e-08
4.72236e-08
0.00129232
-4.88596e-08
4.68286e-08
0.00129193
-3.95796e-08
4.65113e-08
0.00128881
-2.85972e-08
4.58302e-08
0.0012659
-1.44648e-08
4.2169e-08
0.00113461
2.46456e-08
0.000607117
1.3492e-08
2.81921e-08
0.000608498
2.71362e-08
4.77677e-08
0.00113731
3.77369e-08
5.19169e-08
0.00126895
4.6567e-08
5.28327e-08
0.00129193
5.33705e-08
5.33705e-08
0.00129506
5.73999e-08
5.39843e-08
0.00129545
5.81274e-08
5.47062e-08
0.00129554
5.53443e-08
5.55002e-08
0.00129559
4.91284e-08
5.63112e-08
0.00129565
3.9801e-08
5.70753e-08
0.00129569
2.78914e-08
5.77265e-08
0.00129573
1.41002e-08
5.82046e-08
0.00129576
-7.38593e-10
5.84629e-08
0.00129577
-1.57172e-08
5.84764e-08
0.00129577
-2.98794e-08
5.8247e-08
0.00129576
-4.2305e-08
5.7802e-08
0.00129573
-5.21671e-08
5.71929e-08
0.00129569
-5.88013e-08
5.64877e-08
0.00129565
-6.17753e-08
5.57616e-08
0.0012956
-6.09537e-08
5.50859e-08
0.00129554
-5.65571e-08
5.45162e-08
0.00129545
-4.9205e-08
5.4079e-08
0.00129506
-3.98024e-08
5.37186e-08
0.00129193
-2.87372e-08
5.29324e-08
0.00126895
-1.4542e-08
4.87436e-08
0.00113731
2.86603e-08
0.0006085
1.35768e-08
3.05064e-08
0.00060867
2.73335e-08
5.13252e-08
0.00113765
3.80667e-08
5.57314e-08
0.00126933
4.70423e-08
5.67574e-08
0.00129232
5.39843e-08
5.73999e-08
0.00129545
5.81263e-08
5.81263e-08
0.00129584
5.89237e-08
5.89646e-08
0.00129593
5.61554e-08
5.98721e-08
0.00129599
4.98907e-08
6.07866e-08
0.00129604
4.04494e-08
6.16375e-08
0.00129609
2.83666e-08
6.23537e-08
0.00129612
1.43569e-08
6.28727e-08
0.00129615
-7.25259e-10
6.31481e-08
0.00129616
-1.59463e-08
6.31594e-08
0.00129616
-3.03239e-08
6.29138e-08
0.00129615
-4.29149e-08
6.2446e-08
0.00129612
-5.28754e-08
6.18148e-08
0.00129609
-5.9534e-08
6.1094e-08
0.00129604
-6.24624e-08
6.0362e-08
0.00129599
-6.15393e-08
5.96895e-08
0.00129593
-5.70075e-08
5.91282e-08
0.00129585
-4.95125e-08
5.86981e-08
0.00129546
-3.9984e-08
5.83332e-08
0.00129232
-2.88264e-08
5.74888e-08
0.00126934
-1.45707e-08
5.29526e-08
0.00113765
3.12198e-08
0.000608672
1.36937e-08
3.10142e-08
0.00060871
2.75935e-08
5.19167e-08
0.00113772
3.84808e-08
5.63408e-08
0.00126941
4.76161e-08
5.74183e-08
0.0012924
5.47062e-08
5.81274e-08
0.00129554
5.89646e-08
5.89237e-08
0.00129593
5.98294e-08
5.98293e-08
0.00129601
5.70661e-08