/*--------------------------------*- C++ -*----------------------------------*\
  =========                 |
  \\      /  F ield         | OpenFOAM: The Open Source CFD Toolbox
   \\    /   O peration     | Website:  https://openfoam.org
    \\  /    A nd           | Version:  7
     \\/     M anipulation  |
\*---------------------------------------------------------------------------*/
FoamFile
{
    version     2.0;
    format      ascii;
    class       volVectorField;
    location    "0.3";
    object      U;
}
// * * * * * * * * * * * * * * * * * * * * * * * * * * * * * * * * * * * * * //

dimensions      [0 1 -1 0 0 0 0];

internalField   nonuniform List<vector> 
31632
(
(4.55034e-07 4.55034e-07 0.052254)
(1.11006e-06 8.14857e-07 0.0955431)
(1.4828e-06 8.89726e-07 0.106114)
(1.79888e-06 9.00073e-07 0.107936)
(2.07537e-06 9.01452e-07 0.108182)
(2.26968e-06 9.01965e-07 0.108212)
(2.34863e-06 9.03216e-07 0.108218)
(2.2942e-06 9.0592e-07 0.108223)
(2.10275e-06 9.10307e-07 0.108227)
(1.7821e-06 9.16068e-07 0.10823)
(1.3489e-06 9.22463e-07 0.108233)
(8.26554e-07 9.28423e-07 0.108235)
(2.4351e-07 9.32849e-07 0.108236)
(-3.6744e-07 9.34884e-07 0.108236)
(-9.70822e-07 9.34151e-07 0.108235)
(-1.53008e-06 9.30866e-07 0.108233)
(-2.00878e-06 9.25693e-07 0.10823)
(-2.37368e-06 9.19556e-07 0.108227)
(-2.59794e-06 9.13534e-07 0.108223)
(-2.66512e-06 9.08582e-07 0.108218)
(-2.57379e-06 9.05219e-07 0.108212)
(-2.34185e-06 9.03181e-07 0.108182)
(-2.00841e-06 9.00758e-07 0.107936)
(-1.62752e-06 8.89514e-07 0.106115)
(-1.18914e-06 8.15486e-07 0.0955432)
(-4.79776e-07 4.62674e-07 0.0522542)
(8.14857e-07 1.11006e-06 0.0955431)
(1.97737e-06 1.97737e-06 0.177797)
(2.62138e-06 2.16032e-06 0.198169)
(3.13494e-06 2.18824e-06 0.201711)
(3.57382e-06 2.19599e-06 0.202192)
(3.87535e-06 2.20476e-06 0.202251)
(3.98574e-06 2.21807e-06 0.202264)
(3.87586e-06 2.23668e-06 0.202272)
(3.5408e-06 2.26009e-06 0.20228)
(2.99408e-06 2.28651e-06 0.202286)
(2.26264e-06 2.313e-06 0.202291)
(1.38339e-06 2.33602e-06 0.202295)
(4.0085e-07 2.35198e-06 0.202297)
(-6.33046e-07 2.35783e-06 0.202297)
(-1.66098e-06 2.35214e-06 0.202295)
(-2.62229e-06 2.33502e-06 0.202291)
(-3.45446e-06 2.30843e-06 0.202286)
(-4.09848e-06 2.27579e-06 0.202279)
(-4.50495e-06 2.24149e-06 0.202272)
(-4.64198e-06 2.21007e-06 0.202264)
(-4.50425e-06 2.18514e-06 0.202251)
(-4.1216e-06 2.16816e-06 0.202192)
(-3.56166e-06 2.15613e-06 0.201711)
(-2.91317e-06 2.12765e-06 0.19817)
(-2.13856e-06 1.95289e-06 0.177797)
(-8.67343e-07 1.11414e-06 0.0955433)
(8.89726e-07 1.4828e-06 0.106114)
(2.16032e-06 2.62138e-06 0.198169)
(2.86843e-06 2.86843e-06 0.221059)
(3.42697e-06 2.91371e-06 0.225051)
(3.90183e-06 2.93533e-06 0.225594)
(4.22811e-06 2.96339e-06 0.225661)
(4.34798e-06 3.00164e-06 0.225675)
(4.22953e-06 3.04941e-06 0.225684)
(3.86684e-06 3.10401e-06 0.225693)
(3.27356e-06 3.16108e-06 0.2257)
(2.47778e-06 3.21485e-06 0.225706)
(1.51849e-06 3.2589e-06 0.22571)
(4.43047e-07 3.2871e-06 0.225712)
(-6.92113e-07 3.29437e-06 0.225712)
(-1.82389e-06 3.27865e-06 0.22571)
(-2.88481e-06 3.24042e-06 0.225706)
(-3.8045e-06 3.18354e-06 0.2257)
(-4.51631e-06 3.11472e-06 0.225692)
(-4.96457e-06 3.04242e-06 0.225684)
(-5.11368e-06 2.97544e-06 0.225675)
(-4.9585e-06 2.9212e-06 0.225661)
(-4.53376e-06 2.88373e-06 0.225594)
(-3.91606e-06 2.85982e-06 0.225051)
(-3.20355e-06 2.81863e-06 0.22106)
(-2.35306e-06 2.58626e-06 0.19817)
(-9.56567e-07 1.48104e-06 0.106115)
(9.00073e-07 1.79888e-06 0.107936)
(2.18824e-06 3.13494e-06 0.201711)
(2.91371e-06 3.42697e-06 0.225051)
(3.48927e-06 3.48927e-06 0.229124)
(3.98117e-06 3.52771e-06 0.229678)
(4.32276e-06 3.57734e-06 0.229747)
(4.45455e-06 3.64168e-06 0.229761)
(4.34277e-06 3.71856e-06 0.229771)
(3.97967e-06 3.80318e-06 0.229779)
(3.37755e-06 3.88872e-06 0.229787)
(2.56372e-06 3.96685e-06 0.229793)
(1.57736e-06 4.02877e-06 0.229797)
(4.67074e-07 4.06643e-06 0.229799)
(-7.07849e-07 4.07373e-06 0.229799)
(-1.88047e-06 4.04878e-06 0.229797)
(-2.97916e-06 3.99324e-06 0.229793)
(-3.92905e-06 3.91316e-06 0.229787)
(-4.65987e-06 3.81815e-06 0.229779)
(-5.11383e-06 3.71984e-06 0.229771)
(-5.25527e-06 3.62996e-06 0.229762)
(-5.08134e-06 3.55801e-06 0.229747)
(-4.63135e-06 3.50896e-06 0.229679)
(-3.98796e-06 3.47855e-06 0.229124)
(-3.25548e-06 3.42827e-06 0.225051)
(-2.39238e-06 3.14889e-06 0.201712)
(-9.74631e-07 1.81713e-06 0.107936)
(9.01452e-07 2.07537e-06 0.108182)
(2.19599e-06 3.57382e-06 0.202192)
(2.93533e-06 3.90183e-06 0.225594)
(3.52771e-06 3.98117e-06 0.229678)
(4.03816e-06 4.03816e-06 0.230235)
(4.39787e-06 4.11051e-06 0.230304)
(4.54507e-06 4.20108e-06 0.230318)
(4.44374e-06 4.30603e-06 0.230328)
(4.08391e-06 4.41858e-06 0.230336)
(3.47604e-06 4.52967e-06 0.230344)
(2.64659e-06 4.62879e-06 0.23035)
(1.63512e-06 4.70542e-06 0.230354)
(4.91962e-07 4.75038e-06 0.230356)
(-7.19937e-07 4.7575e-06 0.230356)
(-1.92922e-06 4.72571e-06 0.230354)
(-3.05977e-06 4.65834e-06 0.23035)
(-4.03235e-06 4.56374e-06 0.230344)
(-4.77364e-06 4.45398e-06 0.230336)
(-5.22479e-06 4.34297e-06 0.230328)
(-5.35144e-06 4.24399e-06 0.230319)
(-5.15439e-06 4.16708e-06 0.230304)
(-4.67835e-06 4.11665e-06 0.230236)
(-4.01208e-06 4.08643e-06 0.229679)
(-3.26545e-06 4.0305e-06 0.225595)
(-2.3989e-06 3.70458e-06 0.202193)
(-9.78446e-07 2.1453e-06 0.108182)
(9.01965e-07 2.26968e-06 0.108212)
(2.20476e-06 3.87535e-06 0.202251)
(2.96339e-06 4.22811e-06 0.225661)
(3.57734e-06 4.32276e-06 0.229747)
(4.11051e-06 4.39787e-06 0.230304)
(4.49171e-06 4.49171e-06 0.230373)
(4.65657e-06 4.60606e-06 0.230387)
(4.56638e-06 4.7355e-06 0.230397)
(4.20868e-06 4.87141e-06 0.230405)
(3.59216e-06 5.00291e-06 0.230413)
(2.74271e-06 5.11798e-06 0.230419)
(1.70085e-06 5.20506e-06 0.230423)
(5.19542e-07 5.25475e-06 0.230425)
(-7.3378e-07 5.26164e-06 0.230425)
(-1.98263e-06 5.22589e-06 0.230423)
(-3.14591e-06 5.15278e-06 0.230419)
(-4.13988e-06 5.05272e-06 0.230413)
(-4.88855e-06 4.93965e-06 0.230405)
(-5.33279e-06 4.82865e-06 0.230397)
(-5.44061e-06 4.73323e-06 0.230388)
(-5.21748e-06 4.66263e-06 0.230373)
(-4.7141e-06 4.61956e-06 0.230304)
(-4.02516e-06 4.59521e-06 0.229748)
(-3.26461e-06 4.53689e-06 0.225662)
(-2.39358e-06 4.16951e-06 0.202252)
(-9.75694e-07 2.41319e-06 0.108212)
(9.03216e-07 2.34863e-06 0.108218)
(2.21807e-06 3.98574e-06 0.202264)
(3.00164e-06 4.34798e-06 0.225675)
(3.64168e-06 4.45455e-06 0.229761)
(4.20108e-06 4.54507e-06 0.230318)
(4.60606e-06 4.65657e-06 0.230387)
(4.78943e-06 4.78943e-06 0.230402)
(4.70967e-06 4.93685e-06 0.230411)
(4.35181e-06 5.08876e-06 0.23042)
(3.72299e-06 5.23308e-06 0.230427)
(2.84902e-06 5.35701e-06 0.230433)
(1.77205e-06 5.44884e-06 0.230438)
(5.48564e-07 5.49975e-06 0.23044)
(-7.48928e-07 5.50577e-06 0.23044)
(-2.03839e-06 5.46854e-06 0.230438)
(-3.23345e-06 5.39532e-06 0.230433)
(-4.24619e-06 5.29817e-06 0.230427)
(-4.99859e-06 5.19206e-06 0.23042)
(-5.4322e-06 5.09216e-06 0.230411)
(-5.51847e-06 5.01091e-06 0.230402)
(-5.26831e-06 4.95558e-06 0.230388)
(-4.73866e-06 4.92636e-06 0.230319)
(-4.02933e-06 4.91172e-06 0.229762)
(-3.25625e-06 4.85393e-06 0.225676)
(-2.37943e-06 4.45758e-06 0.202265)
(-9.67687e-07 2.57284e-06 0.108219)
(9.0592e-07 2.2942e-06 0.108223)
(2.23668e-06 3.87586e-06 0.202272)
(3.04941e-06 4.22953e-06 0.225684)
(3.71856e-06 4.34277e-06 0.229771)
(4.30603e-06 4.44374e-06 0.230328)
(4.7355e-06 4.56638e-06 0.230397)
(4.93685e-06 4.70967e-06 0.230411)
(4.86574e-06 4.86574e-06 0.230421)
(4.50493e-06 5.0237e-06 0.230429)
(3.86043e-06 5.17101e-06 0.230437)
(2.95848e-06 5.29495e-06 0.230443)
(1.84359e-06 5.38445e-06 0.230447)
(5.76465e-07 5.43204e-06 0.230449)
(-7.65004e-07 5.43559e-06 0.230449)
(-2.09312e-06 5.39841e-06 0.230447)
(-3.31635e-06 5.32947e-06 0.230443)
(-4.34325e-06 5.24193e-06 0.230437)
(-5.09471e-06 5.15088e-06 0.230429)
(-5.51411e-06 5.07042e-06 0.230421)
(-5.57728e-06 5.01092e-06 0.230412)
(-5.30124e-06 4.97675e-06 0.230397)
(-4.74894e-06 4.96498e-06 0.230328)
(-4.02402e-06 4.96158e-06 0.229772)
(-3.24187e-06 4.90674e-06 0.225685)
(-2.3591e-06 4.50089e-06 0.202273)
(-9.55933e-07 2.5883e-06 0.108223)
(9.10307e-07 2.10275e-06 0.108227)
(2.26009e-06 3.5408e-06 0.20228)
(3.10401e-06 3.86684e-06 0.225693)
(3.80318e-06 3.97967e-06 0.229779)
(4.41858e-06 4.08391e-06 0.230336)
(4.87141e-06 4.20868e-06 0.230405)
(5.08876e-06 4.35181e-06 0.23042)
(5.0237e-06 4.50493e-06 0.230429)
(4.65708e-06 4.65708e-06 0.230438)
(3.99423e-06 4.79607e-06 0.230446)
(3.06245e-06 4.91008e-06 0.230452)
(1.90914e-06 4.98947e-06 0.230456)
(5.99699e-07 5.02863e-06 0.230458)
(-7.82566e-07 5.02746e-06 0.230458)
(-2.14452e-06 4.9909e-06 0.230456)
(-3.38996e-06 4.9292e-06 0.230451)
(-4.42485e-06 4.85587e-06 0.230445)
(-5.17018e-06 4.78517e-06 0.230438)
(-5.57224e-06 4.72919e-06 0.230429)
(-5.61214e-06 4.69536e-06 0.23042)
(-5.31329e-06 4.68457e-06 0.230406)
(-4.74417e-06 4.69064e-06 0.230337)
(-4.01054e-06 4.69766e-06 0.22978)
(-3.22449e-06 4.64769e-06 0.225693)
(-2.3368e-06 4.25699e-06 0.20228)
(-9.42763e-07 2.43839e-06 0.108227)
(9.16068e-07 1.7821e-06 0.10823)
(2.28651e-06 2.99408e-06 0.202286)
(3.16108e-06 3.27356e-06 0.2257)
(3.88872e-06 3.37755e-06 0.229787)
(4.52967e-06 3.47604e-06 0.230344)
(5.00291e-06 3.59216e-06 0.230413)
(5.23308e-06 3.72299e-06 0.230427)
(5.17101e-06 3.86043e-06 0.230437)
(4.79607e-06 3.99423e-06 0.230446)
(4.11343e-06 4.11343e-06 0.230453)
(3.15187e-06 4.20781e-06 0.230459)
(1.96213e-06 4.26974e-06 0.230464)
(6.14451e-07 4.29576e-06 0.230466)
(-8.02748e-07 4.28776e-06 0.230466)
(-2.19141e-06 4.25192e-06 0.230463)
(-3.45141e-06 4.19921e-06 0.230459)
(-4.48733e-06 4.14264e-06 0.230453)
(-5.22146e-06 4.09469e-06 0.230446)
(-5.60398e-06 4.06475e-06 0.230437)
(-5.62186e-06 4.05678e-06 0.230428)
(-5.30497e-06 4.06809e-06 0.230413)
(-4.72633e-06 4.08954e-06 0.230344)
(-3.99199e-06 4.10441e-06 0.229787)
(-3.20812e-06 4.06109e-06 0.2257)
(-2.31755e-06 3.7129e-06 0.202286)
(-9.30955e-07 2.11828e-06 0.10823)
(9.22463e-07 1.3489e-06 0.108233)
(2.313e-06 2.26264e-06 0.202291)
(3.21485e-06 2.47778e-06 0.225706)
(3.96685e-06 2.56372e-06 0.229793)
(4.62879e-06 2.64659e-06 0.23035)
(5.11798e-06 2.74271e-06 0.230419)
(5.35701e-06 2.84902e-06 0.230433)
(5.29495e-06 2.95848e-06 0.230443)
(4.91008e-06 3.06245e-06 0.230452)
(4.20781e-06 3.15187e-06 0.230459)
(3.21876e-06 3.21876e-06 0.230465)
(1.99708e-06 3.25774e-06 0.23047)
(6.17711e-07 3.26751e-06 0.230472)
(-8.26422e-07 3.25162e-06 0.230472)
(-2.23309e-06 3.2169e-06 0.23047)
(-3.49928e-06 3.17425e-06 0.230465)
(-4.52942e-06 3.13527e-06 0.230459)
(-5.24812e-06 3.10997e-06 0.230452)
(-5.61019e-06 3.10457e-06 0.230443)
(-5.60874e-06 3.11953e-06 0.230434)
(-5.27963e-06 3.14889e-06 0.230419)
(-4.69927e-06 3.18142e-06 0.23035)
(-3.97215e-06 3.20093e-06 0.229793)
(-3.19648e-06 3.16633e-06 0.225706)
(-2.30552e-06 2.88775e-06 0.202291)
(-9.22741e-07 1.64065e-06 0.108233)
(9.28423e-07 8.26554e-07 0.108235)
(2.33602e-06 1.38339e-06 0.202295)
(3.2589e-06 1.51849e-06 0.22571)
(4.02877e-06 1.57736e-06 0.229797)
(4.70542e-06 1.63512e-06 0.230354)
(5.20506e-06 1.70085e-06 0.230423)
(5.44884e-06 1.77205e-06 0.230438)
(5.38445e-06 1.84359e-06 0.230447)
(4.98947e-06 1.90914e-06 0.230456)
(4.26974e-06 1.96213e-06 0.230464)
(3.25774e-06 1.99708e-06 0.23047)
(2.01088e-06 2.01088e-06 0.230474)
(6.0833e-07 2.00399e-06 0.230476)
(-8.53365e-07 1.98107e-06 0.230476)
(-2.2688e-06 1.94878e-06 0.230474)
(-3.53309e-06 1.91705e-06 0.23047)
(-4.55165e-06 1.8953e-06 0.230464)
(-5.2522e-06 1.89064e-06 0.230456)
(-5.59445e-06 1.90602e-06 0.230447)
(-5.57749e-06 1.93881e-06 0.230438)
(-5.24234e-06 1.98064e-06 0.230423)
(-4.66747e-06 2.01938e-06 0.230354)
(-3.95425e-06 2.04076e-06 0.229797)
(-3.19182e-06 2.01766e-06 0.22571)
(-2.3031e-06 1.8326e-06 0.202295)
(-9.1946e-07 1.0354e-06 0.108235)
(9.32849e-07 2.4351e-07 0.108236)
(2.35198e-06 4.00849e-07 0.202297)
(3.2871e-06 4.43046e-07 0.225712)
(4.06643e-06 4.67074e-07 0.229799)
(4.75038e-06 4.91962e-07 0.230356)
(5.25475e-06 5.19542e-07 0.230425)
(5.49975e-06 5.48564e-07 0.23044)
(5.43204e-06 5.76465e-07 0.230449)
(5.02863e-06 5.99698e-07 0.230458)
(4.29576e-06 6.1445e-07 0.230466)
(3.26751e-06 6.17711e-07 0.230472)
(2.00399e-06 6.0833e-07 0.230476)
(5.87894e-07 5.87894e-07 0.230478)
(-8.81643e-07 5.6125e-07 0.230478)
(-2.29713e-06 5.34048e-07 0.230476)
(-3.55279e-06 5.14271e-07 0.230472)
(-4.55586e-06 5.08591e-07 0.230466)
(-5.23744e-06 5.21094e-07 0.230458)
(-5.56205e-06 5.51927e-07 0.23045)
(-5.53409e-06 5.96242e-07 0.23044)
(-5.19857e-06 6.44634e-07 0.230425)
(-4.63473e-06 6.85382e-07 0.230356)
(-3.93988e-06 7.07465e-07 0.229799)
(-3.19412e-06 6.99622e-07 0.225712)
(-2.31028e-06 6.26213e-07 0.202297)
(-9.21387e-07 3.47356e-07 0.108236)
(9.34884e-07 -3.6744e-07 0.108236)
(2.35783e-06 -6.33047e-07 0.202297)
(3.29437e-06 -6.92113e-07 0.225712)
(4.07373e-06 -7.07849e-07 0.229799)
(4.7575e-06 -7.19937e-07 0.230356)
(5.26164e-06 -7.33781e-07 0.230425)
(5.50577e-06 -7.48928e-07 0.23044)
(5.43559e-06 -7.65004e-07 0.230449)
(5.02746e-06 -7.82566e-07 0.230458)
(4.28776e-06 -8.02748e-07 0.230466)
(3.25162e-06 -8.26422e-07 0.230472)
(1.98107e-06 -8.53365e-07 0.230476)
(5.6125e-07 -8.81643e-07 0.230478)
(-9.07219e-07 -9.07219e-07 0.230478)
(-2.3158e-06 -9.26061e-07 0.230476)
(-3.55857e-06 -9.32885e-07 0.230472)
(-4.54486e-06 -9.23958e-07 0.230466)
(-5.2089e-06 -8.97931e-07 0.230458)
(-5.51933e-06 -8.56742e-07 0.23045)
(-5.48479e-06 -8.06263e-07 0.23044)
(-5.15304e-06 -7.55567e-07 0.230425)
(-4.60306e-06 -7.14782e-07 0.230356)
(-3.92805e-06 -6.91085e-07 0.229799)
(-3.20049e-06 -6.79542e-07 0.225712)
(-2.32445e-06 -6.31854e-07 0.202297)
(-9.27752e-07 -3.67759e-07 0.108236)
(9.34151e-07 -9.70822e-07 0.108235)
(2.35214e-06 -1.66098e-06 0.202295)
(3.27865e-06 -1.82389e-06 0.22571)
(4.04878e-06 -1.88047e-06 0.229797)
(4.72571e-06 -1.92922e-06 0.230354)
(5.22589e-06 -1.98263e-06 0.230423)
(5.46854e-06 -2.03839e-06 0.230438)
(5.39841e-06 -2.09312e-06 0.230447)
(4.9909e-06 -2.14452e-06 0.230456)
(4.25192e-06 -2.19141e-06 0.230463)
(3.2169e-06 -2.23309e-06 0.23047)
(1.94878e-06 -2.2688e-06 0.230474)
(5.34048e-07 -2.29713e-06 0.230476)
(-9.26061e-07 -2.3158e-06 0.230476)
(-2.32281e-06 -2.32281e-06 0.230474)
(-3.55071e-06 -2.31591e-06 0.23047)
(-4.52094e-06 -2.29407e-06 0.230464)
(-5.17026e-06 -2.258e-06 0.230456)
(-5.47042e-06 -2.21068e-06 0.230448)
(-5.43297e-06 -2.15769e-06 0.230438)
(-5.10727e-06 -2.10651e-06 0.230423)
(-4.57168e-06 -2.06493e-06 0.230354)
(-3.91587e-06 -2.03643e-06 0.229797)
(-3.20682e-06 -2.00148e-06 0.22571)
(-2.34212e-06 -1.83361e-06 0.202295)
(-9.37497e-07 -1.05028e-06 0.108235)
(9.30866e-07 -1.53008e-06 0.108233)
(2.33502e-06 -2.62229e-06 0.202291)
(3.24042e-06 -2.88481e-06 0.225706)
(3.99324e-06 -2.97916e-06 0.229793)
(4.65834e-06 -3.05977e-06 0.23035)
(5.15278e-06 -3.14591e-06 0.230419)
(5.39532e-06 -3.23345e-06 0.230433)
(5.32947e-06 -3.31635e-06 0.230443)
(4.9292e-06 -3.38996e-06 0.230451)
(4.19921e-06 -3.45141e-06 0.230459)
(3.17425e-06 -3.49928e-06 0.230465)
(1.91705e-06 -3.53309e-06 0.23047)
(5.14272e-07 -3.5528e-06 0.230472)
(-9.32885e-07 -3.55857e-06 0.230472)
(-2.31591e-06 -3.55071e-06 0.23047)
(-3.52984e-06 -3.52984e-06 0.230466)
(-4.48698e-06 -3.49704e-06 0.23046)
(-5.12556e-06 -3.45408e-06 0.230452)
(-5.41907e-06 -3.40367e-06 0.230443)
(-5.38071e-06 -3.34971e-06 0.230434)
(-5.06079e-06 -3.29726e-06 0.230419)
(-4.53728e-06 -3.25157e-06 0.23035)
(-3.89791e-06 -3.21321e-06 0.229793)
(-3.20701e-06 -3.15156e-06 0.225706)
(-2.35835e-06 -2.87537e-06 0.202291)
(-9.48898e-07 -1.64368e-06 0.108233)
(9.25693e-07 -2.00878e-06 0.10823)
(2.30843e-06 -3.45446e-06 0.202286)
(3.18354e-06 -3.8045e-06 0.2257)
(3.91316e-06 -3.92905e-06 0.229787)
(4.56374e-06 -4.03235e-06 0.230344)
(5.05272e-06 -4.13988e-06 0.230413)
(5.29817e-06 -4.24619e-06 0.230427)
(5.24193e-06 -4.34325e-06 0.230437)
(4.85587e-06 -4.42485e-06 0.230445)
(4.14264e-06 -4.48733e-06 0.230453)
(3.13527e-06 -4.52942e-06 0.230459)
(1.8953e-06 -4.55165e-06 0.230464)
(5.08592e-07 -4.55587e-06 0.230466)
(-9.23958e-07 -4.54487e-06 0.230466)
(-2.29407e-06 -4.52094e-06 0.230464)
(-3.49704e-06 -4.48698e-06 0.23046)
(-4.4452e-06 -4.4452e-06 0.230454)
(-5.07692e-06 -4.39723e-06 0.230446)
(-5.3661e-06 -4.34429e-06 0.230437)
(-5.32669e-06 -4.28786e-06 0.230428)
(-5.00991e-06 -4.23041e-06 0.230413)
(-4.49433e-06 -4.17517e-06 0.230344)
(-3.86776e-06 -4.12139e-06 0.229787)
(-3.19476e-06 -4.032e-06 0.2257)
(-2.36776e-06 -3.67015e-06 0.202286)
(-9.59653e-07 -2.10116e-06 0.10823)
(9.19556e-07 -2.37368e-06 0.108227)
(2.27579e-06 -4.09848e-06 0.202279)
(3.11472e-06 -4.51631e-06 0.225692)
(3.81815e-06 -4.65987e-06 0.229779)
(4.45398e-06 -4.77364e-06 0.230336)
(4.93965e-06 -4.88855e-06 0.230405)
(5.19206e-06 -4.99859e-06 0.23042)
(5.15088e-06 -5.09471e-06 0.230429)
(4.78517e-06 -5.17018e-06 0.230438)
(4.09469e-06 -5.22146e-06 0.230446)
(3.10997e-06 -5.24812e-06 0.230452)
(1.89064e-06 -5.2522e-06 0.230456)
(5.21095e-07 -5.23744e-06 0.230458)
(-8.97931e-07 -5.2089e-06 0.230458)
(-2.258e-06 -5.17026e-06 0.230456)
(-3.45408e-06 -5.12556e-06 0.230452)
(-4.39723e-06 -5.07692e-06 0.230446)
(-5.02466e-06 -5.02466e-06 0.230439)
(-5.30975e-06 -4.96781e-06 0.23043)
(-5.26697e-06 -4.9053e-06 0.23042)
(-4.94904e-06 -4.83759e-06 0.230406)
(-4.43658e-06 -4.76714e-06 0.230337)
(-3.81953e-06 -4.69372e-06 0.22978)
(-3.1646e-06 -4.57883e-06 0.225693)
(-2.36482e-06 -4.16231e-06 0.20228)
(-9.66695e-07 -2.3926e-06 0.108227)
(9.13534e-07 -2.59794e-06 0.108223)
(2.24149e-06 -4.50495e-06 0.202272)
(3.04242e-06 -4.96457e-06 0.225684)
(3.71984e-06 -5.11383e-06 0.229771)
(4.34297e-06 -5.22479e-06 0.230328)
(4.82865e-06 -5.33279e-06 0.230397)
(5.09216e-06 -5.4322e-06 0.230411)
(5.07042e-06 -5.51411e-06 0.230421)
(4.72919e-06 -5.57224e-06 0.230429)
(4.06475e-06 -5.60398e-06 0.230437)
(3.10457e-06 -5.61019e-06 0.230443)
(1.90602e-06 -5.59445e-06 0.230447)
(5.51927e-07 -5.56205e-06 0.23045)
(-8.56742e-07 -5.51933e-06 0.23045)
(-2.21068e-06 -5.47042e-06 0.230448)
(-3.40367e-06 -5.41907e-06 0.230443)
(-4.34429e-06 -5.3661e-06 0.230437)
(-4.96781e-06 -5.30975e-06 0.23043)
(-5.24676e-06 -5.24676e-06 0.230421)
(-5.1966e-06 -5.1742e-06 0.230412)
(-4.87275e-06 -5.09178e-06 0.230397)
(-4.3594e-06 -5.00271e-06 0.230328)
(-3.75e-06 -4.90911e-06 0.229771)
(-3.11388e-06 -4.77533e-06 0.225685)
(-2.34545e-06 -4.33919e-06 0.202273)
(-9.66978e-07 -2.5095e-06 0.108223)
(9.08582e-07 -2.66512e-06 0.108218)
(2.21007e-06 -4.64198e-06 0.202264)
(2.97544e-06 -5.11368e-06 0.225675)
(3.62996e-06 -5.25527e-06 0.229762)
(4.24399e-06 -5.35144e-06 0.230319)
(4.73323e-06 -5.44061e-06 0.230388)
(5.01091e-06 -5.51847e-06 0.230402)
(5.01092e-06 -5.57728e-06 0.230412)
(4.69536e-06 -5.61214e-06 0.23042)
(4.05679e-06 -5.62186e-06 0.230428)
(3.11953e-06 -5.60874e-06 0.230434)
(1.93881e-06 -5.57749e-06 0.230438)
(5.96243e-07 -5.53409e-06 0.23044)
(-8.06262e-07 -5.48479e-06 0.23044)
(-2.15769e-06 -5.43297e-06 0.230438)
(-3.34971e-06 -5.38071e-06 0.230434)
(-4.28786e-06 -5.32669e-06 0.230428)
(-4.9053e-06 -5.26697e-06 0.23042)
(-5.1742e-06 -5.1966e-06 0.230412)
(-5.11208e-06 -5.11208e-06 0.230403)
(-4.77848e-06 -5.01398e-06 0.230388)
(-4.2625e-06 -4.90782e-06 0.230319)
(-3.66137e-06 -4.79926e-06 0.229762)
(-3.0456e-06 -4.65799e-06 0.225676)
(-2.31012e-06 -4.23541e-06 0.202264)
(-9.59205e-07 -2.46645e-06 0.108219)
(9.05219e-07 -2.57379e-06 0.108212)
(2.18514e-06 -4.50425e-06 0.202251)
(2.9212e-06 -4.9585e-06 0.225661)
(3.55801e-06 -5.08134e-06 0.229747)
(4.16708e-06 -5.15439e-06 0.230304)
(4.66263e-06 -5.21748e-06 0.230373)
(4.95558e-06 -5.26831e-06 0.230388)
(4.97675e-06 -5.30124e-06 0.230397)
(4.68457e-06 -5.31329e-06 0.230406)
(4.06809e-06 -5.30497e-06 0.230413)
(3.14889e-06 -5.27963e-06 0.230419)
(1.98065e-06 -5.24234e-06 0.230423)
(6.44634e-07 -5.19857e-06 0.230425)
(-7.55567e-07 -5.15304e-06 0.230425)
(-2.10651e-06 -5.10727e-06 0.230423)
(-3.29726e-06 -5.06079e-06 0.230419)
(-4.23041e-06 -5.00991e-06 0.230413)
(-4.83759e-06 -4.94904e-06 0.230406)
(-5.09178e-06 -4.87275e-06 0.230397)
(-5.01398e-06 -4.77848e-06 0.230388)
(-4.66921e-06 -4.66921e-06 0.230374)
(-4.15221e-06 -4.55389e-06 0.230305)
(-3.56293e-06 -4.44189e-06 0.229748)
(-2.96998e-06 -4.30819e-06 0.225662)
(-2.26622e-06 -3.9247e-06 0.202252)
(-9.456e-07 -2.29765e-06 0.108212)
(9.03181e-07 -2.34185e-06 0.108182)
(2.16816e-06 -4.1216e-06 0.202192)
(2.88373e-06 -4.53376e-06 0.225594)
(3.50896e-06 -4.63135e-06 0.229679)
(4.11665e-06 -4.67835e-06 0.230236)
(4.61956e-06 -4.7141e-06 0.230304)
(4.92636e-06 -4.73866e-06 0.230319)
(4.96498e-06 -4.74894e-06 0.230328)
(4.69064e-06 -4.74417e-06 0.230337)
(4.08954e-06 -4.72633e-06 0.230344)
(3.18142e-06 -4.69927e-06 0.23035)
(2.01938e-06 -4.66747e-06 0.230354)
(6.85382e-07 -4.63473e-06 0.230356)
(-7.14782e-07 -4.60306e-06 0.230356)
(-2.06493e-06 -4.57168e-06 0.230354)
(-3.25157e-06 -4.53728e-06 0.23035)
(-4.17517e-06 -4.49433e-06 0.230344)
(-4.76714e-06 -4.43658e-06 0.230337)
(-5.00271e-06 -4.3594e-06 0.230328)
(-4.90782e-06 -4.2625e-06 0.230319)
(-4.55389e-06 -4.15221e-06 0.230305)
(-4.04106e-06 -4.04106e-06 0.230236)
(-3.4699e-06 -3.94113e-06 0.229679)
(-2.9032e-06 -3.83057e-06 0.225594)
(-2.2277e-06 -3.50071e-06 0.202192)
(-9.32173e-07 -2.04955e-06 0.108182)
(9.00758e-07 -2.00841e-06 0.107936)
(2.15613e-06 -3.56166e-06 0.201711)
(2.85982e-06 -3.91606e-06 0.225051)
(3.47855e-06 -3.98796e-06 0.229124)
(4.08643e-06 -4.01208e-06 0.229679)
(4.59521e-06 -4.02516e-06 0.229748)
(4.91172e-06 -4.02933e-06 0.229762)
(4.96158e-06 -4.02402e-06 0.229772)
(4.69766e-06 -4.01054e-06 0.22978)
(4.10441e-06 -3.99199e-06 0.229787)
(3.20093e-06 -3.97215e-06 0.229793)
(2.04076e-06 -3.95425e-06 0.229797)
(7.07466e-07 -3.93988e-06 0.229799)
(-6.91084e-07 -3.92805e-06 0.229799)
(-2.03643e-06 -3.91587e-06 0.229797)
(-3.21321e-06 -3.89791e-06 0.229793)
(-4.12139e-06 -3.86776e-06 0.229787)
(-4.69372e-06 -3.81953e-06 0.22978)
(-4.90911e-06 -3.75e-06 0.229771)
(-4.79926e-06 -3.66137e-06 0.229762)
(-4.44189e-06 -3.56293e-06 0.229748)
(-3.94113e-06 -3.4699e-06 0.229679)
(-3.39562e-06 -3.39562e-06 0.229124)
(-2.85948e-06 -3.31959e-06 0.225051)
(-2.20819e-06 -3.0474e-06 0.201711)
(-9.25623e-07 -1.76927e-06 0.107936)
(8.89514e-07 -1.62752e-06 0.106115)
(2.12765e-06 -2.91317e-06 0.19817)
(2.81863e-06 -3.20355e-06 0.22106)
(3.42827e-06 -3.25548e-06 0.225051)
(4.0305e-06 -3.26545e-06 0.225595)
(4.53689e-06 -3.26461e-06 0.225662)
(4.85393e-06 -3.25625e-06 0.225676)
(4.90674e-06 -3.24187e-06 0.225685)
(4.64769e-06 -3.22449e-06 0.225693)
(4.06109e-06 -3.20812e-06 0.2257)
(3.16633e-06 -3.19648e-06 0.225706)
(2.01766e-06 -3.19182e-06 0.22571)
(6.99622e-07 -3.19412e-06 0.225712)
(-6.79542e-07 -3.20049e-06 0.225712)
(-2.00148e-06 -3.20682e-06 0.22571)
(-3.15156e-06 -3.20701e-06 0.225706)
(-4.032e-06 -3.19476e-06 0.2257)
(-4.57883e-06 -3.1646e-06 0.225693)
(-4.77533e-06 -3.11388e-06 0.225685)
(-4.65799e-06 -3.0456e-06 0.225676)
(-4.30819e-06 -2.96998e-06 0.225662)
(-3.83057e-06 -2.9032e-06 0.225594)
(-3.31959e-06 -2.85948e-06 0.225051)
(-2.82045e-06 -2.82045e-06 0.221059)
(-2.19566e-06 -2.60405e-06 0.198169)
(-9.22364e-07 -1.48947e-06 0.106115)
(8.15486e-07 -1.18914e-06 0.0955432)
(1.95289e-06 -2.13856e-06 0.177797)
(2.58626e-06 -2.35306e-06 0.19817)
(3.14889e-06 -2.39238e-06 0.201712)
(3.70458e-06 -2.3989e-06 0.202193)
(4.16951e-06 -2.39358e-06 0.202252)
(4.45758e-06 -2.37943e-06 0.202265)
(4.50089e-06 -2.3591e-06 0.202273)
(4.257e-06 -2.3368e-06 0.20228)
(3.7129e-06 -2.31755e-06 0.202286)
(2.88775e-06 -2.30552e-06 0.202291)
(1.8326e-06 -2.3031e-06 0.202295)
(6.26213e-07 -2.31028e-06 0.202297)
(-6.31854e-07 -2.32445e-06 0.202297)
(-1.83361e-06 -2.34212e-06 0.202295)
(-2.87537e-06 -2.35835e-06 0.202291)
(-3.67015e-06 -2.36776e-06 0.202286)
(-4.16231e-06 -2.36482e-06 0.20228)
(-4.33919e-06 -2.34545e-06 0.202273)
(-4.23541e-06 -2.31012e-06 0.202264)
(-3.9247e-06 -2.26622e-06 0.202252)
(-3.50071e-06 -2.2277e-06 0.202192)
(-3.0474e-06 -2.20819e-06 0.201711)
(-2.60405e-06 -2.19566e-06 0.198169)
(-2.03993e-06 -2.03993e-06 0.177797)
(-8.58301e-07 -1.15687e-06 0.0955431)
(4.62674e-07 -4.79776e-07 0.0522542)
(1.11414e-06 -8.67343e-07 0.0955433)
(1.48104e-06 -9.56567e-07 0.106115)
(1.81713e-06 -9.74631e-07 0.107936)
(2.1453e-06 -9.78446e-07 0.108182)
(2.41319e-06 -9.75694e-07 0.108212)
(2.57284e-06 -9.67687e-07 0.108219)
(2.5883e-06 -9.55933e-07 0.108223)
(2.43839e-06 -9.42763e-07 0.108227)
(2.11828e-06 -9.30955e-07 0.10823)
(1.64065e-06 -9.22741e-07 0.108233)
(1.0354e-06 -9.1946e-07 0.108235)
(3.47356e-07 -9.21387e-07 0.108236)
(-3.67759e-07 -9.27752e-07 0.108236)
(-1.05028e-06 -9.37497e-07 0.108235)
(-1.64368e-06 -9.48898e-07 0.108233)
(-2.10116e-06 -9.59653e-07 0.10823)
(-2.3926e-06 -9.66695e-07 0.108227)
(-2.5095e-06 -9.66978e-07 0.108223)
(-2.46645e-06 -9.59205e-07 0.108219)
(-2.29765e-06 -9.456e-07 0.108212)
(-2.04955e-06 -9.32173e-07 0.108182)
(-1.76927e-06 -9.25623e-07 0.107936)
(-1.48947e-06 -9.22364e-07 0.106115)
(-1.15687e-06 -8.58301e-07 0.0955431)
(-4.84283e-07 -4.84283e-07 0.0522541)
(5.80924e-07 5.80924e-07 0.0522519)
(1.68443e-06 1.06735e-06 0.0955406)
(2.67331e-06 1.1701e-06 0.106112)
(3.5334e-06 1.18523e-06 0.107934)
(4.2504e-06 1.19024e-06 0.10818)
(4.75417e-06 1.1969e-06 0.10821)
(4.98593e-06 1.20625e-06 0.108217)
(4.91392e-06 1.21776e-06 0.108221)
(4.53335e-06 1.23047e-06 0.108226)
(3.86307e-06 1.24314e-06 0.108229)
(2.94235e-06 1.25433e-06 0.108232)
(1.82733e-06 1.26266e-06 0.108235)
(5.86803e-07 1.2672e-06 0.108236)
(-7.01298e-07 1.26774e-06 0.108236)
(-1.95522e-06 1.26455e-06 0.108235)
(-3.09466e-06 1.25882e-06 0.108232)
(-4.04508e-06 1.25194e-06 0.108229)
(-4.74364e-06 1.24515e-06 0.108226)
(-5.14416e-06 1.23948e-06 0.108222)
(-5.22212e-06 1.23557e-06 0.108217)
(-4.97941e-06 1.23365e-06 0.10821)
(-4.44859e-06 1.23343e-06 0.10818)
(-3.69334e-06 1.23287e-06 0.107934)
(-2.79371e-06 1.21936e-06 0.106113)
(-1.76746e-06 1.11435e-06 0.095541)
(-6.14413e-07 6.13896e-07 0.0522522)
(1.06735e-06 1.68443e-06 0.0955406)
(3.02646e-06 3.02646e-06 0.177795)
(4.69279e-06 3.31328e-06 0.198168)
(6.09016e-06 3.35959e-06 0.20171)
(7.23532e-06 3.37653e-06 0.202191)
(8.02545e-06 3.39808e-06 0.202251)
(8.36745e-06 3.42745e-06 0.202264)
(8.21139e-06 3.46298e-06 0.202272)
(7.55164e-06 3.50185e-06 0.20228)
(6.42047e-06 3.54044e-06 0.202287)
(4.88201e-06 3.57471e-06 0.202293)
(3.02656e-06 3.60078e-06 0.202297)
(9.64044e-07 3.61568e-06 0.202299)
(-1.18049e-06 3.61786e-06 0.202299)
(-3.27486e-06 3.60734e-06 0.202297)
(-5.18778e-06 3.58614e-06 0.202293)
(-6.79536e-06 3.55748e-06 0.202287)
(-7.99124e-06 3.52511e-06 0.20228)
(-8.69555e-06 3.49294e-06 0.202273)
(-8.86398e-06 3.46453e-06 0.202264)
(-8.49683e-06 3.44261e-06 0.202251)
(-7.64697e-06 3.42826e-06 0.202192)
(-6.4195e-06 3.41699e-06 0.201711)
(-4.93976e-06 3.37384e-06 0.198169)
(-3.20059e-06 3.08865e-06 0.177796)
(-1.1393e-06 1.73618e-06 0.0955411)
(1.1701e-06 2.67331e-06 0.106112)
(3.31328e-06 4.69279e-06 0.198168)
(5.1266e-06 5.1266e-06 0.221059)
(6.63581e-06 5.20463e-06 0.22505)
(7.86922e-06 5.23854e-06 0.225594)
(8.71859e-06 5.27996e-06 0.225661)
(9.08362e-06 5.3334e-06 0.225676)
(8.91036e-06 5.39594e-06 0.225685)
(8.19278e-06 5.46279e-06 0.225694)
(6.96541e-06 5.52814e-06 0.225702)
(5.29699e-06 5.58561e-06 0.225708)
(3.28441e-06 5.6291e-06 0.225713)
(1.04573e-06 5.65366e-06 0.225715)
(-1.28408e-06 5.65611e-06 0.225715)
(-3.56171e-06 5.6359e-06 0.225713)
(-5.64424e-06 5.59518e-06 0.225708)
(-7.39624e-06 5.53851e-06 0.225702)
(-8.70111e-06 5.47216e-06 0.225694)
(-9.47116e-06 5.40335e-06 0.225686)
(-9.65781e-06 5.33923e-06 0.225676)
(-9.26165e-06 5.28588e-06 0.225662)
(-8.34147e-06 5.24673e-06 0.225595)
(-7.01323e-06 5.21649e-06 0.225051)
(-5.41274e-06 5.14307e-06 0.22106)
(-3.52368e-06 4.71847e-06 0.198169)
(-1.25994e-06 2.70636e-06 0.106113)
(1.18523e-06 3.5334e-06 0.107934)
(3.35959e-06 6.09016e-06 0.20171)
(5.20463e-06 6.63581e-06 0.22505)
(6.74372e-06 6.74372e-06 0.229123)
(8.00466e-06 6.79825e-06 0.229679)
(8.87582e-06 6.86238e-06 0.229747)
(9.25427e-06 6.94131e-06 0.229762)
(9.08422e-06 7.03104e-06 0.229772)
(8.35843e-06 7.12507e-06 0.229781)
(7.11112e-06 7.21561e-06 0.229789)
(5.41151e-06 7.29431e-06 0.229795)
(3.35808e-06 7.35323e-06 0.2298)
(1.07139e-06 7.3859e-06 0.229802)
(-1.30999e-06 7.38825e-06 0.229802)
(-3.63847e-06 7.35968e-06 0.2298)
(-5.76679e-06 7.303e-06 0.229795)
(-7.55543e-06 7.22423e-06 0.229789)
(-8.88462e-06 7.13182e-06 0.229781)
(-9.66478e-06 7.03551e-06 0.229773)
(-9.84706e-06 6.94502e-06 0.229763)
(-9.43366e-06 6.86848e-06 0.229748)
(-8.48698e-06 6.81047e-06 0.22968)
(-7.12828e-06 6.76454e-06 0.229125)
(-5.49926e-06 6.66571e-06 0.225052)
(-3.58491e-06 6.1288e-06 0.201711)
(-1.28404e-06 3.56665e-06 0.107934)
(1.19024e-06 4.2504e-06 0.10818)
(3.37653e-06 7.23532e-06 0.202191)
(5.23854e-06 7.86922e-06 0.225594)
(6.79825e-06 8.00466e-06 0.229679)
(8.08091e-06 8.08091e-06 0.230235)
(8.97134e-06 8.16859e-06 0.230304)
(9.36405e-06 8.27306e-06 0.230319)
(9.20117e-06 8.38909e-06 0.230329)
(8.47391e-06 8.50861e-06 0.230338)
(7.21557e-06 8.62205e-06 0.230346)
(5.49548e-06 8.71939e-06 0.230353)
(3.41329e-06 8.79135e-06 0.230357)
(1.09185e-06 8.83056e-06 0.230359)
(-1.32686e-06 8.83277e-06 0.230359)
(-3.69131e-06 8.79787e-06 0.230357)
(-5.85045e-06 8.72968e-06 0.230353)
(-7.66148e-06 8.63575e-06 0.230346)
(-9.00238e-06 8.52635e-06 0.230338)
(-9.7828e-06 8.41305e-06 0.23033)
(-9.95472e-06 8.30705e-06 0.23032)
(-9.52283e-06 8.21735e-06 0.230305)
(-8.55335e-06 8.14861e-06 0.230237)
(-7.17226e-06 8.09278e-06 0.22968)
(-5.52627e-06 7.97384e-06 0.225595)
(-3.60316e-06 7.34049e-06 0.202192)
(-1.29139e-06 4.30632e-06 0.10818)
(1.1969e-06 4.75417e-06 0.10821)
(3.39808e-06 8.02545e-06 0.202251)
(5.27996e-06 8.71859e-06 0.225661)
(6.86238e-06 8.87582e-06 0.229747)
(8.16859e-06 8.97134e-06 0.230304)
(9.07984e-06 9.07984e-06 0.230374)
(9.48779e-06 9.20624e-06 0.230389)
(9.33222e-06 9.34417e-06 0.230399)
(8.60255e-06 9.48418e-06 0.230408)
(7.33121e-06 9.61535e-06 0.230416)
(5.58779e-06 9.72652e-06 0.230422)
(3.4735e-06 9.80768e-06 0.230427)
(1.11403e-06 9.8512e-06 0.230429)
(-1.34469e-06 9.85331e-06 0.230429)
(-3.74685e-06 9.81468e-06 0.230426)
(-5.93738e-06 9.74029e-06 0.230422)
(-7.77008e-06 9.63904e-06 0.230416)