/*--------------------------------*- C++ -*----------------------------------*\
  =========                 |
  \\      /  F ield         | OpenFOAM: The Open Source CFD Toolbox
   \\    /   O peration     | Website:  https://openfoam.org
    \\  /    A nd           | Version:  7
     \\/     M anipulation  |
\*---------------------------------------------------------------------------*/
FoamFile
{
    version     2.0;
    format      ascii;
    class       volScalarField;
    location    "0.5";
    object      p;
}
// * * * * * * * * * * * * * * * * * * * * * * * * * * * * * * * * * * * * * //

dimensions      [0 2 -2 0 0 0 0];

internalField   nonuniform List<scalar> 
31632
(
-0.00181828
-0.00181829
-0.00181834
-0.00181841
-0.00181849
-0.0018186
-0.00181871
-0.00181884
-0.00181896
-0.00181906
-0.00181915
-0.00181921
-0.00181925
-0.00181925
-0.00181921
-0.00181915
-0.00181907
-0.00181896
-0.00181885
-0.00181874
-0.00181863
-0.00181853
-0.00181846
-0.00181839
-0.00181835
-0.00181834
-0.00181829
-0.00181822
-0.00181824
-0.00181829
-0.00181837
-0.00181847
-0.00181858
-0.00181869
-0.0018188
-0.0018189
-0.00181898
-0.00181904
-0.00181906
-0.00181906
-0.00181903
-0.00181897
-0.0018189
-0.0018188
-0.0018187
-0.0018186
-0.0018185
-0.00181842
-0.00181835
-0.0018183
-0.00181829
-0.00181836
-0.00181834
-0.00181824
-0.00181824
-0.00181828
-0.00181836
-0.00181845
-0.00181856
-0.00181867
-0.00181878
-0.00181887
-0.00181895
-0.001819
-0.00181903
-0.00181902
-0.00181899
-0.00181894
-0.00181887
-0.00181878
-0.00181868
-0.00181859
-0.0018185
-0.00181842
-0.00181835
-0.00181832
-0.00181832
-0.00181842
-0.00181841
-0.00181829
-0.00181828
-0.00181833
-0.0018184
-0.00181849
-0.0018186
-0.00181871
-0.00181881
-0.0018189
-0.00181897
-0.00181903
-0.00181905
-0.00181905
-0.00181902
-0.00181897
-0.00181889
-0.00181881
-0.00181872
-0.00181863
-0.00181855
-0.00181847
-0.00181841
-0.00181837
-0.00181838
-0.00181849
-0.00181849
-0.00181837
-0.00181836
-0.0018184
-0.00181847
-0.00181857
-0.00181867
-0.00181878
-0.00181888
-0.00181897
-0.00181904
-0.00181909
-0.00181911
-0.00181911
-0.00181908
-0.00181903
-0.00181896
-0.00181888
-0.0018188
-0.00181871
-0.00181862
-0.00181855
-0.00181849
-0.00181845
-0.00181846
-0.00181858
-0.0018186
-0.00181847
-0.00181845
-0.00181849
-0.00181857
-0.00181866
-0.00181876
-0.00181887
-0.00181897
-0.00181905
-0.00181912
-0.00181917
-0.00181919
-0.00181919
-0.00181916
-0.00181911
-0.00181905
-0.00181897
-0.00181889
-0.0018188
-0.00181872
-0.00181864
-0.00181858
-0.00181854
-0.00181855
-0.00181868
-0.00181871
-0.00181858
-0.00181856
-0.0018186
-0.00181867
-0.00181876
-0.00181886
-0.00181897
-0.00181906
-0.00181915
-0.00181922
-0.00181926
-0.00181928
-0.00181928
-0.00181925
-0.00181921
-0.00181914
-0.00181907
-0.00181899
-0.0018189
-0.00181882
-0.00181874
-0.00181868
-0.00181864
-0.00181865
-0.00181879
-0.00181884
-0.00181869
-0.00181867
-0.00181871
-0.00181878
-0.00181887
-0.00181897
-0.00181907
-0.00181916
-0.00181924
-0.00181931
-0.00181935
-0.00181937
-0.00181937
-0.00181934
-0.0018193
-0.00181924
-0.00181916
-0.00181908
-0.001819
-0.00181891
-0.00181883
-0.00181877
-0.00181873
-0.00181875
-0.00181889
-0.00181896
-0.0018188
-0.00181878
-0.00181881
-0.00181888
-0.00181897
-0.00181906
-0.00181916
-0.00181925
-0.00181933
-0.0018194
-0.00181944
-0.00181946
-0.00181945
-0.00181943
-0.00181939
-0.00181933
-0.00181926
-0.00181917
-0.00181909
-0.001819
-0.00181892
-0.00181885
-0.00181882
-0.00181884
-0.00181899
-0.00181906
-0.0018189
-0.00181887
-0.0018189
-0.00181897
-0.00181905
-0.00181915
-0.00181924
-0.00181933
-0.00181941
-0.00181947
-0.00181951
-0.00181953
-0.00181953
-0.00181951
-0.00181946
-0.00181941
-0.00181933
-0.00181925
-0.00181917
-0.00181908
-0.00181899
-0.00181892
-0.00181889
-0.00181891
-0.00181908
-0.00181915
-0.00181898
-0.00181895
-0.00181897
-0.00181904
-0.00181912
-0.00181922
-0.00181931
-0.0018194
-0.00181947
-0.00181953
-0.00181957
-0.00181959
-0.00181959
-0.00181957
-0.00181953
-0.00181947
-0.0018194
-0.00181931
-0.00181923
-0.00181913
-0.00181904
-0.00181897
-0.00181894
-0.00181897
-0.00181915
-0.00181921
-0.00181904
-0.001819
-0.00181903
-0.00181909
-0.00181917
-0.00181926
-0.00181935
-0.00181944
-0.00181951
-0.00181957
-0.00181961
-0.00181963
-0.00181963
-0.00181961
-0.00181957
-0.00181951
-0.00181944
-0.00181936
-0.00181927
-0.00181917
-0.00181908
-0.00181901
-0.00181898
-0.00181902
-0.0018192
-0.00181925
-0.00181906
-0.00181903
-0.00181905
-0.00181911
-0.00181919
-0.00181928
-0.00181937
-0.00181946
-0.00181953
-0.00181959
-0.00181963
-0.00181965
-0.00181965
-0.00181963
-0.0018196
-0.00181954
-0.00181947
-0.00181938
-0.00181929
-0.00181919
-0.0018191
-0.00181903
-0.001819
-0.00181904
-0.00181922
-0.00181925
-0.00181906
-0.00181902
-0.00181905
-0.00181911
-0.00181919
-0.00181928
-0.00181937
-0.00181945
-0.00181953
-0.00181959
-0.00181963
-0.00181965
-0.00181966
-0.00181964
-0.0018196
-0.00181954
-0.00181947
-0.00181938
-0.00181929
-0.00181919
-0.0018191
-0.00181902
-0.001819
-0.00181904
-0.00181923
-0.00181921
-0.00181903
-0.00181899
-0.00181902
-0.00181908
-0.00181916
-0.00181925
-0.00181934
-0.00181943
-0.00181951
-0.00181957
-0.00181961
-0.00181963
-0.00181964
-0.00181962
-0.00181958
-0.00181953
-0.00181945
-0.00181937
-0.00181927
-0.00181917
-0.00181908
-0.001819
-0.00181898
-0.00181902
-0.0018192
-0.00181915
-0.00181897
-0.00181894
-0.00181897
-0.00181903
-0.00181911
-0.00181921
-0.0018193
-0.00181939
-0.00181946
-0.00181953
-0.00181957
-0.0018196
-0.0018196
-0.00181958
-0.00181955
-0.00181949
-0.00181942
-0.00181933
-0.00181923
-0.00181913
-0.00181904
-0.00181897
-0.00181894
-0.00181897
-0.00181915
-0.00181907
-0.0018189
-0.00181887
-0.00181889
-0.00181896
-0.00181905
-0.00181914
-0.00181924
-0.00181933
-0.00181941
-0.00181947
-0.00181951
-0.00181954
-0.00181954
-0.00181953
-0.00181949
-0.00181944
-0.00181936
-0.00181928
-0.00181918
-0.00181908
-0.00181899
-0.00181891
-0.00181888
-0.00181891
-0.00181908
-0.00181896
-0.0018188
-0.00181878
-0.00181881
-0.00181888
-0.00181897
-0.00181907
-0.00181916
-0.00181926
-0.00181933
-0.0018194
-0.00181944
-0.00181947
-0.00181947
-0.00181945
-0.00181942
-0.00181936
-0.00181929
-0.00181921
-0.00181911
-0.00181901
-0.00181892
-0.00181884
-0.00181881
-0.00181883
-0.00181899
-0.00181885
-0.0018187
-0.00181868
-0.00181872
-0.0018188
-0.00181889
-0.00181899
-0.00181908
-0.00181917
-0.00181925
-0.00181931
-0.00181936
-0.00181938
-0.00181938
-0.00181937
-0.00181933
-0.00181928
-0.00181921
-0.00181912
-0.00181903
-0.00181893
-0.00181883
-0.00181876
-0.00181872
-0.00181874
-0.00181889
-0.00181874
-0.0018186
-0.00181859
-0.00181863
-0.00181871
-0.0018188
-0.0018189
-0.001819
-0.00181909
-0.00181917
-0.00181923
-0.00181927
-0.00181929
-0.00181929
-0.00181927
-0.00181923
-0.00181918
-0.00181911
-0.00181903
-0.00181893
-0.00181883
-0.00181874
-0.00181866
-0.00181862
-0.00181863
-0.00181877
-0.00181863
-0.0018185
-0.0018185
-0.00181855
-0.00181862
-0.00181872
-0.00181882
-0.00181891
-0.001819
-0.00181908
-0.00181913
-0.00181917
-0.00181919
-0.00181919
-0.00181917
-0.00181913
-0.00181908
-0.00181901
-0.00181893
-0.00181883
-0.00181873
-0.00181863
-0.00181855
-0.00181851
-0.00181852
-0.00181865
-0.00181853
-0.00181842
-0.00181842
-0.00181847
-0.00181855
-0.00181864
-0.00181874
-0.00181883
-0.00181892
-0.00181899
-0.00181904
-0.00181908
-0.0018191
-0.0018191
-0.00181908
-0.00181904
-0.00181899
-0.00181892
-0.00181883
-0.00181874
-0.00181863
-0.00181853
-0.00181845
-0.00181841
-0.00181841
-0.00181853
-0.00181846
-0.00181835
-0.00181835
-0.00181841
-0.00181849
-0.00181858
-0.00181868
-0.00181877
-0.00181885
-0.00181892
-0.00181897
-0.00181901
-0.00181903
-0.00181902
-0.001819
-0.00181897
-0.00181891
-0.00181884
-0.00181876
-0.00181866
-0.00181855
-0.00181845
-0.00181837
-0.00181832
-0.00181832
-0.00181844
-0.00181839
-0.0018183
-0.00181832
-0.00181837
-0.00181845
-0.00181854
-0.00181864
-0.00181873
-0.00181882
-0.00181889
-0.00181894
-0.00181898
-0.001819
-0.001819
-0.00181898
-0.00181894
-0.00181888
-0.00181881
-0.00181872
-0.00181862
-0.00181851
-0.00181841
-0.00181832
-0.00181827
-0.00181827
-0.00181837
-0.00181835
-0.00181829
-0.00181832
-0.00181838
-0.00181846
-0.00181855
-0.00181865
-0.00181875
-0.00181884
-0.00181891
-0.00181897
-0.00181902
-0.00181904
-0.00181904
-0.00181902
-0.00181897
-0.00181891
-0.00181883
-0.00181874
-0.00181863
-0.00181852
-0.00181841
-0.00181832
-0.00181827
-0.00181825
-0.00181832
-0.00181834
-0.00181836
-0.00181842
-0.00181849
-0.00181858
-0.00181868
-0.00181879
-0.00181889
-0.00181899
-0.00181908
-0.00181915
-0.0018192
-0.00181922
-0.00181923
-0.0018192
-0.00181915
-0.00181908
-0.00181899
-0.00181889
-0.00181877
-0.00181865
-0.00181853
-0.00181844
-0.00181837
-0.00181832
-0.0018183
-0.00545421
-0.00545414
-0.00545425
-0.00545445
-0.00545474
-0.0054551
-0.00545551
-0.00545594
-0.00545635
-0.00545672
-0.00545703
-0.00545725
-0.00545736
-0.00545737
-0.00545725
-0.00545704
-0.00545674
-0.00545637
-0.00545597
-0.00545556
-0.00545517
-0.00545482
-0.00545455
-0.00545435
-0.00545426
-0.00545432
-0.00545414
-0.00545391
-0.00545396
-0.00545415
-0.00545443
-0.00545479
-0.00545519
-0.00545561
-0.00545602
-0.00545639
-0.00545669
-0.00545691
-0.00545702
-0.00545702
-0.00545691
-0.0054567
-0.0054564
-0.00545604
-0.00545565
-0.00545524
-0.00545486
-0.00545452
-0.00545426
-0.00545408
-0.00545404
-0.00545427
-0.00545425
-0.00545396
-0.005454
-0.00545418
-0.00545447
-0.00545483
-0.00545523
-0.00545565
-0.00545606
-0.00545643
-0.00545673
-0.00545694
-0.00545705
-0.00545705
-0.00545694
-0.00545673
-0.00545643
-0.00545608
-0.00545569
-0.00545529
-0.00545491
-0.00545457
-0.0054543
-0.00545413
-0.0054541
-0.00545439
-0.00545445
-0.00545415
-0.00545418
-0.00545437
-0.00545466
-0.00545502
-0.00545543
-0.00545585
-0.00545625
-0.00545662
-0.00545692
-0.00545714
-0.00545724
-0.00545724
-0.00545713
-0.00545692
-0.00545663
-0.00545628
-0.00545589
-0.00545549
-0.0054551
-0.00545477
-0.0054545
-0.00545432
-0.00545429
-0.0054546
-0.00545474
-0.00545443
-0.00545447
-0.00545466
-0.00545495
-0.00545532
-0.00545572
-0.00545615
-0.00545656
-0.00545693
-0.00545723
-0.00545744
-0.00545755
-0.00545755
-0.00545744
-0.00545723
-0.00545693
-0.00545658
-0.00545619
-0.00545579
-0.0054554
-0.00545506
-0.00545478
-0.0054546
-0.00545457
-0.00545488
-0.0054551
-0.00545479
-0.00545483
-0.00545502
-0.00545532
-0.00545568
-0.0054561
-0.00545652
-0.00545693
-0.0054573
-0.00545761
-0.00545782
-0.00545793
-0.00545793
-0.00545782
-0.00545761
-0.00545731
-0.00545696
-0.00545656
-0.00545616
-0.00545577
-0.00545542
-0.00545514
-0.00545495
-0.00545492
-0.00545523
-0.00545551
-0.00545519
-0.00545523
-0.00545543
-0.00545572
-0.0054561
-0.00545651
-0.00545694
-0.00545735
-0.00545773
-0.00545803
-0.00545824
-0.00545835
-0.00545835
-0.00545824
-0.00545803
-0.00545773
-0.00545737
-0.00545698
-0.00545657
-0.00545617
-0.00545582
-0.00545553
-0.00545534
-0.0054553
-0.00545562
-0.00545594
-0.00545561
-0.00545565
-0.00545585
-0.00545615
-0.00545652
-0.00545694
-0.00545737
-0.00545779
-0.00545816
-0.00545847
-0.00545868
-0.00545879
-0.00545879
-0.00545868
-0.00545847
-0.00545817
-0.00545781
-0.00545741
-0.00545699
-0.00545659
-0.00545623
-0.00545593
-0.00545574
-0.0054557
-0.00545602
-0.00545635
-0.00545602
-0.00545606
-0.00545625
-0.00545656
-0.00545693
-0.00545735
-0.00545779
-0.00545821
-0.00545858
-0.00545889
-0.0054591
-0.00545921
-0.00545921
-0.0054591
-0.00545889
-0.00545859
-0.00545822
-0.00545782
-0.0054574
-0.00545699
-0.00545662
-0.00545632
-0.00545612
-0.00545608
-0.00545641
-0.00545672
-0.00545639
-0.00545643
-0.00545662
-0.00545693
-0.0054573
-0.00545773
-0.00545816
-0.00545858
-0.00545896
-0.00545926
-0.00545948
-0.00545959
-0.00545959
-0.00545948
-0.00545926
-0.00545896
-0.00545859
-0.00545818
-0.00545776
-0.00545734
-0.00545696
-0.00545666
-0.00545646
-0.00545642
-0.00545676
-0.00545703
-0.00545669
-0.00545673
-0.00545692
-0.00545723
-0.00545761
-0.00545803
-0.00545847
-0.00545889
-0.00545926
-0.00545957
-0.00545979
-0.0054599
-0.0054599
-0.00545978
-0.00545957
-0.00545927
-0.0054589
-0.00545848
-0.00545805
-0.00545763
-0.00545725
-0.00545694
-0.00545674
-0.0054567
-0.00545705
-0.00545725
-0.00545691
-0.00545694
-0.00545714
-0.00545744
-0.00545782
-0.00545824
-0.00545868
-0.0054591
-0.00545948
-0.00545979
-0.00546
-0.00546011
-0.00546011
-0.00546
-0.00545979
-0.00545949
-0.00545911
-0.00545869
-0.00545826
-0.00545783
-0.00545744
-0.00545713
-0.00545693
-0.0054569
-0.00545725
-0.00545736
-0.00545702
-0.00545705
-0.00545724
-0.00545755
-0.00545793
-0.00545835
-0.00545879
-0.00545921
-0.00545959
-0.0054599
-0.00546011
-0.00546023
-0.00546023
-0.00546012
-0.0054599
-0.0054596
-0.00545923
-0.00545881
-0.00545837
-0.00545794
-0.00545755
-0.00545723
-0.00545703
-0.005457
-0.00545735
-0.00545737
-0.00545702
-0.00545705
-0.00545724
-0.00545755
-0.00545793
-0.00545835
-0.00545879
-0.00545921
-0.00545959
-0.0054599
-0.00546011
-0.00546023
-0.00546023
-0.00546012
-0.00545991
-0.00545961
-0.00545923
-0.00545881
-0.00545837
-0.00545794
-0.00545755
-0.00545723
-0.00545703
-0.005457
-0.00545735
-0.00545725
-0.00545691
-0.00545694
-0.00545713
-0.00545744
-0.00545782
-0.00545824
-0.00545868
-0.0054591
-0.00545948
-0.00545978
-0.00546
-0.00546012
-0.00546012
-0.00546001
-0.0054598
-0.0054595
-0.00545913
-0.00545871
-0.00545827
-0.00545784
-0.00545745
-0.00545713
-0.00545693
-0.0054569
-0.00545725
-0.00545704
-0.0054567
-0.00545673
-0.00545692
-0.00545723
-0.00545761
-0.00545803
-0.00545847
-0.00545889
-0.00545926
-0.00545957
-0.00545979
-0.0054599
-0.00545991
-0.0054598
-0.00545959
-0.00545929
-0.00545892
-0.0054585
-0.00545807
-0.00545764
-0.00545725
-0.00545694
-0.00545674
-0.0054567
-0.00545705
-0.00545674
-0.0054564
-0.00545643
-0.00545663
-0.00545693
-0.00545731
-0.00545773
-0.00545817
-0.00545859
-0.00545896
-0.00545927
-0.00545949
-0.0054596
-0.00545961
-0.0054595
-0.00545929
-0.005459
-0.00545863
-0.00545821
-0.00545778
-0.00545735
-0.00545697
-0.00545666
-0.00545646
-0.00545643
-0.00545677
-0.00545637
-0.00545604
-0.00545608
-0.00545628
-0.00545658
-0.00545696
-0.00545737
-0.00545781
-0.00545822
-0.00545859
-0.0054589
-0.00545911
-0.00545923
-0.00545923
-0.00545913
-0.00545892
-0.00545863
-0.00545827
-0.00545785
-0.00545742
-0.005457
-0.00545662
-0.00545631
-0.00545612
-0.00545608
-0.00545641
-0.00545597
-0.00545565
-0.00545569
-0.00545589
-0.00545619
-0.00545656
-0.00545698
-0.00545741
-0.00545782
-0.00545818
-0.00545848
-0.00545869
-0.00545881
-0.00545881
-0.00545871
-0.0054585
-0.00545821
-0.00545785
-0.00545745
-0.00545702
-0.0054566
-0.00545623
-0.00545592
-0.00545573
-0.00545569
-0.00545602
-0.00545556
-0.00545524
-0.00545529
-0.00545549
-0.00545579
-0.00545616
-0.00545657
-0.00545699
-0.0054574
-0.00545776
-0.00545805
-0.00545826
-0.00545837
-0.00545837
-0.00545827
-0.00545807
-0.00545778
-0.00545742
-0.00545702
-0.0054566
-0.00545618
-0.00545581
-0.00545551
-0.00545532
-0.00545528
-0.0054556
-0.00545517
-0.00545486
-0.00545491
-0.0054551
-0.0054554
-0.00545577
-0.00545617
-0.00545659
-0.00545699
-0.00545734
-0.00545763
-0.00545783
-0.00545794
-0.00545794
-0.00545784
-0.00545764
-0.00545735
-0.005457
-0.0054566
-0.00545618
-0.00545578
-0.00545541
-0.00545511
-0.00545492
-0.00545488
-0.00545519
-0.00545482
-0.00545452
-0.00545457
-0.00545477
-0.00545506
-0.00545542
-0.00545582
-0.00545623
-0.00545662
-0.00545696
-0.00545725
-0.00545744
-0.00545755
-0.00545755
-0.00545745
-0.00545725
-0.00545697
-0.00545662
-0.00545623
-0.00545581
-0.00545541
-0.00545504
-0.00545475
-0.00545456
-0.00545452
-0.00545482
-0.00545455
-0.00545426
-0.0054543
-0.0054545
-0.00545478
-0.00545514
-0.00545553
-0.00545593
-0.00545632
-0.00545666
-0.00545694
-0.00545713
-0.00545723
-0.00545723
-0.00545713
-0.00545694
-0.00545666
-0.00545631
-0.00545592
-0.00545551
-0.00545511
-0.00545475
-0.00545445
-0.00545426
-0.00545422
-0.00545453
-0.00545435
-0.00545408
-0.00545413
-0.00545432
-0.0054546
-0.00545495
-0.00545534
-0.00545574
-0.00545612
-0.00545646
-0.00545674
-0.00545693
-0.00545703
-0.00545703
-0.00545693
-0.00545674
-0.00545646
-0.00545612
-0.00545573
-0.00545532
-0.00545492
-0.00545456
-0.00545426
-0.00545407
-0.00545403
-0.00545432
-0.00545426
-0.00545404
-0.0054541
-0.00545429
-0.00545457
-0.00545492
-0.0054553
-0.0054557
-0.00545608
-0.00545642
-0.0054567
-0.0054569
-0.005457
-0.005457
-0.0054569
-0.0054567
-0.00545643
-0.00545608
-0.00545569
-0.00545528
-0.00545488
-0.00545452
-0.00545422
-0.00545403
-0.00545398
-0.00545421
-0.00545432
-0.00545427
-0.00545439
-0.0054546
-0.00545488
-0.00545523
-0.00545562
-0.00545602
-0.00545641
-0.00545676
-0.00545705
-0.00545725
-0.00545735
-0.00545735
-0.00545725
-0.00545705
-0.00545677
-0.00545641
-0.00545602
-0.0054556
-0.00545519
-0.00545482
-0.00545453
-0.00545432
-0.00545421
-0.00545427
-0.00908964
-0.00908948
-0.00908964
-0.00908998
-0.00909049
-0.00909113
-0.00909186
-0.00909262
-0.00909336
-0.00909404
-0.00909459
-0.00909498
-0.00909519
-0.00909519
-0.00909499
-0.0090946
-0.00909405
-0.00909338
-0.00909265
-0.0090919
-0.00909118
-0.00909056
-0.00909006
-0.00908973
-0.00908959
-0.00908975
-0.00908948
-0.00908904
-0.00908911
-0.00908942
-0.00908993
-0.00909057
-0.00909129
-0.00909205
-0.00909279
-0.00909346
-0.00909401
-0.0090944
-0.00909461
-0.00909461
-0.00909441
-0.00909402
-0.00909348
-0.00909281
-0.00909208
-0.00909133
-0.00909062
-0.00909
-0.00908951
-0.00908921
-0.00908915
-0.0090896
-0.00908964
-0.00908911
-0.00908915
-0.00908947
-0.00908998
-0.00909062
-0.00909135
-0.00909212
-0.00909286
-0.00909353
-0.00909408
-0.00909448
-0.00909468
-0.00909468
-0.00909448
-0.00909409
-0.00909354
-0.00909288
-0.00909214
-0.00909139
-0.00909067
-0.00909005
-0.00908955
-0.00908925
-0.00908922
-0.00908976
-0.00908998
-0.00908942
-0.00908947
-0.00908979
-0.00909031
-0.00909096
-0.0090917
-0.00909247
-0.00909322
-0.00909389
-0.00909445
-0.00909484
-0.00909505
-0.00909505
-0.00909485
-0.00909446
-0.00909391
-0.00909324
-0.00909249
-0.00909173
-0.00909101
-0.00909037
-0.00908987
-0.00908956
-0.00908953
-0.0090901
-0.00909049
-0.00908993
-0.00908998
-0.00909031
-0.00909083
-0.00909149
-0.00909224
-0.00909302
-0.00909378
-0.00909446
-0.00909502
-0.00909542
-0.00909563
-0.00909563
-0.00909542
-0.00909503
-0.00909447
-0.0090938
-0.00909305
-0.00909228
-0.00909154
-0.00909089
-0.00909038
-0.00909006
-0.00909002
-0.0090906
-0.00909113
-0.00909057
-0.00909062
-0.00909096
-0.00909149
-0.00909216
-0.00909292
-0.00909371
-0.00909448
-0.00909517
-0.00909574
-0.00909614
-0.00909635
-0.00909636
-0.00909615
-0.00909575
-0.00909519
-0.0090945
-0.00909374
-0.00909296
-0.00909221
-0.00909155
-0.00909103
-0.0090907
-0.00909065
-0.00909123
-0.00909186
-0.00909129
-0.00909135
-0.0090917
-0.00909224
-0.00909292
-0.00909369
-0.00909449
-0.00909527
-0.00909597
-0.00909655
-0.00909696
-0.00909717
-0.00909717
-0.00909696
-0.00909656
-0.00909599
-0.00909529
-0.00909452
-0.00909372
-0.00909296
-0.00909229
-0.00909175
-0.00909142
-0.00909137
-0.00909195
-0.00909262
-0.00909205
-0.00909212
-0.00909247
-0.00909302
-0.00909371
-0.00909449
-0.0090953
-0.00909609
-0.00909681
-0.00909739
-0.00909781
-0.00909802
-0.00909803
-0.00909781
-0.0090974
-0.00909682
-0.00909612
-0.00909533
-0.00909452
-0.00909375
-0.00909306
-0.00909252
-0.00909217
-0.00909211
-0.00909269
-0.00909336
-0.00909279
-0.00909286
-0.00909322
-0.00909378
-0.00909448
-0.00909527
-0.00909609
-0.0090969
-0.00909762
-0.00909821
-0.00909863
-0.00909885
-0.00909885
-0.00909864
-0.00909822
-0.00909764
-0.00909692
-0.00909612
-0.0090953
-0.00909451
-0.00909381
-0.00909326
-0.0090929
-0.00909284
-0.00909342
-0.00909404
-0.00909346
-0.00909353
-0.00909389
-0.00909446
-0.00909517
-0.00909597
-0.00909681
-0.00909762
-0.00909835
-0.00909895
-0.00909937
-0.00909959
-0.00909959
-0.00909938
-0.00909896
-0.00909836
-0.00909764
-0.00909683
-0.009096
-0.0090952
-0.00909449
-0.00909392
-0.00909356
-0.0090935
-0.00909408
-0.00909459
-0.00909401
-0.00909408
-0.00909445
-0.00909502
-0.00909574
-0.00909655
-0.00909739
-0.00909821
-0.00909895
-0.00909955
-0.00909998
-0.0091002
-0.0091002
-0.00909998
-0.00909956
-0.00909896
-0.00909823
-0.00909741
-0.00909657
-0.00909576
-0.00909504
-0.00909447
-0.0090941
-0.00909403
-0.00909462
-0.00909498
-0.0090944
-0.00909448
-0.00909484
-0.00909542
-0.00909614
-0.00909696
-0.00909781
-0.00909863
-0.00909937
-0.00909998
-0.00910041
-0.00910063
-0.00910063
-0.00910041
-0.00909999
-0.00909938
-0.00909865
-0.00909783
-0.00909698
-0.00909616
-0.00909544
-0.00909486
-0.00909449
-0.00909441
-0.009095
-0.00909519
-0.00909461
-0.00909468
-0.00909505
-0.00909563
-0.00909635
-0.00909717
-0.00909802
-0.00909885
-0.00909959
-0.0091002
-0.00910063
-0.00910086
-0.00910086
-0.00910064
-0.00910021
-0.0090996
-0.00909886
-0.00909804
-0.00909719
-0.00909637
-0.00909564
-0.00909506
-0.00909469
-0.00909461
-0.00909519
-0.00909519
-0.00909461
-0.00909468
-0.00909505
-0.00909563
-0.00909636
-0.00909717
-0.00909803
-0.00909885
-0.00909959
-0.0091002
-0.00910063
-0.00910086
-0.00910086
-0.00910064
-0.00910021
-0.00909961
-0.00909887
-0.00909804
-0.00909719
-0.00909637
-0.00909564
-0.00909506
-0.00909469
-0.00909461
-0.0090952
-0.00909499
-0.00909441
-0.00909448
-0.00909485
-0.00909542
-0.00909615
-0.00909696
-0.00909781
-0.00909864
-0.00909938
-0.00909998
-0.00910041
-0.00910064
-0.00910064
-0.00910042
-0.00909999
-0.00909939
-0.00909865
-0.00909783
-0.00909699
-0.00909617
-0.00909544
-0.00909486
-0.00909449
-0.00909442
-0.009095
-0.0090946
-0.00909402
-0.00909409
-0.00909446
-0.00909503
-0.00909575
-0.00909656
-0.0090974
-0.00909822
-0.00909896
-0.00909956
-0.00909999
-0.00910021
-0.00910021
-0.00909999
-0.00909957
-0.00909897
-0.00909824
-0.00909743
-0.00909659
-0.00909577
-0.00909505
-0.00909448
-0.00909411
-0.00909404
-0.00909462
-0.00909405
-0.00909348
-0.00909354
-0.00909391
-0.00909447
-0.00909519
-0.00909599
-0.00909682
-0.00909764
-0.00909836
-0.00909896
-0.00909938
-0.0090996
-0.00909961
-0.00909939
-0.00909897
-0.00909838
-0.00909766
-0.00909685
-0.00909602
-0.00909521
-0.0090945
-0.00909393
-0.00909357
-0.00909351
-0.00909408
-0.00909338
-0.00909281
-0.00909288
-0.00909324
-0.0090938
-0.0090945
-0.00909529
-0.00909612
-0.00909692
-0.00909764
-0.00909823
-0.00909865
-0.00909886
-0.00909887
-0.00909865
-0.00909824
-0.00909766
-0.00909694
-0.00909614
-0.00909532
-0.00909453
-0.00909382
-0.00909326
-0.00909291
-0.00909285
-0.00909343
-0.00909265
-0.00909208
-0.00909214
-0.00909249
-0.00909305
-0.00909374
-0.00909452
-0.00909533
-0.00909612
-0.00909683
-0.00909741
-0.00909783
-0.00909804
-0.00909804
-0.00909783
-0.00909743
-0.00909685
-0.00909614
-0.00909535
-0.00909454
-0.00909376
-0.00909307
-0.00909252
-0.00909218
-0.00909212
-0.00909269
-0.0090919
-0.00909133
-0.00909139
-0.00909173
-0.00909228
-0.00909296
-0.00909372
-0.00909452
-0.0090953
-0.009096
-0.00909657
-0.00909698
-0.00909719
-0.00909719
-0.00909699
-0.00909659
-0.00909602
-0.00909532
-0.00909454
-0.00909374
-0.00909297
-0.00909229
-0.00909176
-0.00909142
-0.00909137
-0.00909194
-0.00909118
-0.00909062
-0.00909067
-0.00909101
-0.00909154
-0.00909221
-0.00909296
-0.00909375
-0.00909451
-0.0090952
-0.00909576
-0.00909616
-0.00909637
-0.00909637
-0.00909617
-0.00909577
-0.00909521
-0.00909453
-0.00909376
-0.00909297
-0.00909222
-0.00909155
-0.00909103
-0.0090907
-0.00909065
-0.00909121
-0.00909056
-0.00909
-0.00909005
-0.00909037
-0.00909089
-0.00909155
-0.00909229
-0.00909306
-0.00909381
-0.00909449
-0.00909504
-0.00909544
-0.00909564
-0.00909564
-0.00909544
-0.00909505
-0.0090945
-0.00909382
-0.00909307
-0.00909229
-0.00909155
-0.0090909
-0.00909038
-0.00909006
-0.00909001
-0.00909057
-0.00909006
-0.00908951
-0.00908955
-0.00908987
-0.00909038
-0.00909103
-0.00909175
-0.00909252
-0.00909326
-0.00909392
-0.00909447
-0.00909486
-0.00909506
-0.00909506
-0.00909486
-0.00909448
-0.00909393
-0.00909326
-0.00909252
-0.00909176
-0.00909103
-0.00909038
-0.00908987
-0.00908955
-0.00908951
-0.00909006
-0.00908973
-0.00908921
-0.00908925
-0.00908956
-0.00909006
-0.0090907
-0.00909142
-0.00909217
-0.0090929
-0.00909356
-0.0090941
-0.00909449
-0.00909469
-0.00909469
-0.00909449
-0.00909411
-0.00909357
-0.00909291
-0.00909218
-0.00909142
-0.0090907
-0.00909006
-0.00908955
-0.00908923
-0.00908919
-0.00908972
-0.00908959
-0.00908915
-0.00908922
-0.00908953
-0.00909002
-0.00909065
-0.00909137
-0.00909211
-0.00909284
-0.0090935
-0.00909403
-0.00909441
-0.00909461
-0.00909461
-0.00909442
-0.00909404
-0.00909351
-0.00909285
-0.00909212
-0.00909137
-0.00909065
-0.00909001
-0.00908951
-0.00908919
-0.00908912
-0.00908956
-0.00908975
-0.0090896
-0.00908976
-0.0090901
-0.0090906
-0.00909123
-0.00909195
-0.00909269
-0.00909342
-0.00909408
-0.00909462
-0.009095
-0.00909519
-0.0090952
-0.009095
-0.00909462
-0.00909408
-0.00909343
-0.00909269
-0.00909194
-0.00909121
-0.00909057
-0.00909006
-0.00908972
-0.00908956
-0.00908971
-0.0127245
-0.0127243
-0.0127245
-0.012725
-0.0127258
-0.0127267
-0.0127278
-0.012729
-0.0127301
-0.0127312
-0.012732
-0.0127326
-0.0127329
-0.0127329
-0.0127326
-0.012732
-0.0127312
-0.0127302
-0.012729
-0.0127279
-0.0127268
-0.0127258
-0.0127251
-0.0127246
-0.0127243
-0.0127246
-0.0127243
-0.0127236
-0.0127237
-0.0127242
-0.0127249
-0.0127259
-0.012727
-0.0127282
-0.0127293
-0.0127303
-0.0127311
-0.0127317
-0.012732
-0.012732
-0.0127317
-0.0127311
-0.0127303
-0.0127293
-0.0127282
-0.012727
-0.0127259
-0.012725
-0.0127242
-0.0127238
-0.0127237
-0.0127244
-0.0127245
-0.0127237
-0.0127238
-0.0127242
-0.012725
-0.012726
-0.0127271
-0.0127282
-0.0127294
-0.0127304
-0.0127312
-0.0127318
-0.0127322
-0.0127322
-0.0127319
-0.0127313
-0.0127304
-0.0127294
-0.0127283
-0.0127271
-0.012726
-0.0127251
-0.0127243
-0.0127238
-0.0127238
-0.0127246
-0.012725
-0.0127242
-0.0127242
-0.0127247
-0.0127255
-0.0127265
-0.0127276
-0.0127288
-0.0127299
-0.012731
-0.0127318
-0.0127324
-0.0127327
-0.0127327
-0.0127324
-0.0127318
-0.012731
-0.0127299
-0.0127288
-0.0127276
-0.0127265
-0.0127255
-0.0127248
-0.0127243
-0.0127243
-0.0127251
-0.0127258
-0.0127249
-0.012725
-0.0127255
-0.0127263
-0.0127273
-0.0127284
-0.0127296
-0.0127308
-0.0127318
-0.0127327
-0.0127333
-0.0127336
-0.0127336
-0.0127333
-0.0127327
-0.0127318
-0.0127308
-0.0127296
-0.0127284
-0.0127273
-0.0127263
-0.0127255
-0.0127251
-0.012725
-0.0127259
-0.0127267
-0.0127259
-0.012726
-0.0127265
-0.0127273
-0.0127283
-0.0127295
-0.0127307
-0.0127318
-0.0127329
-0.0127338
-0.0127344
-0.0127347
-0.0127347
-0.0127344
-0.0127338
-0.0127329
-0.0127319
-0.0127307
-0.0127295
-0.0127283
-0.0127273
-0.0127265
-0.012726
-0.012726
-0.0127268
-0.0127278
-0.012727
-0.0127271
-0.0127276
-0.0127284
-0.0127295
-0.0127306
-0.0127319
-0.0127331
-0.0127341
-0.012735
-0.0127357
-0.012736
-0.012736
-0.0127357
-0.012735
-0.0127342
-0.0127331
-0.0127319
-0.0127307
-0.0127295
-0.0127285
-0.0127276
-0.0127271
-0.0127271
-0.0127279
-0.012729
-0.0127282
-0.0127282
-0.0127288
-0.0127296
-0.0127307
-0.0127319
-0.0127331
-0.0127343
-0.0127354
-0.0127363
-0.012737
-0.0127373
-0.0127373
-0.012737
-0.0127364
-0.0127355
-0.0127344
-0.0127331
-0.0127319
-0.0127307
-0.0127296
-0.0127288
-0.0127283
-0.0127282
-0.0127291
-0.0127301
-0.0127293
-0.0127294
-0.0127299
-0.0127308
-0.0127318
-0.0127331
-0.0127343
-0.0127356
-0.0127367
-0.0127376
-0.0127383
-0.0127386
-0.0127386
-0.0127383
-0.0127376
-0.0127367
-0.0127356
-0.0127344
-0.0127331
-0.0127319
-0.0127308
-0.01273
-0.0127294
-0.0127293
-0.0127302
-0.0127312
-0.0127303
-0.0127304
-0.012731
-0.0127318
-0.0127329
-0.0127341
-0.0127354
-0.0127367
-0.0127378
-0.0127387
-0.0127394
-0.0127398
-0.0127398
-0.0127394
-0.0127388
-0.0127378
-0.0127367
-0.0127355
-0.0127342
-0.0127329
-0.0127318
-0.012731
-0.0127304
-0.0127303
-0.0127312
-0.012732
-0.0127311
-0.0127312
-0.0127318
-0.0127327
-0.0127338
-0.012735
-0.0127363
-0.0127376
-0.0127387
-0.0127397
-0.0127404
-0.0127407
-0.0127407
-0.0127404
-0.0127397
-0.0127388
-0.0127376
-0.0127364
-0.0127351
-0.0127338
-0.0127327
-0.0127318
-0.0127313
-0.0127312
-0.012732
-0.0127326
-0.0127317
-0.0127318
-0.0127324
-0.0127333
-0.0127344
-0.0127357
-0.012737
-0.0127383
-0.0127394
-0.0127404
-0.012741
-0.0127414
-0.0127414
-0.012741
-0.0127404
-0.0127394
-0.0127383
-0.012737
-0.0127357
-0.0127344
-0.0127333
-0.0127324
-0.0127319
-0.0127318
-0.0127326
-0.0127329
-0.012732
-0.0127322
-0.0127327
-0.0127336
-0.0127347
-0.012736
-0.0127373
-0.0127386
-0.0127398
-0.0127407
-0.0127414
-0.0127417
-0.0127417
-0.0127414
-0.0127407
-0.0127398
-0.0127386
-0.0127373
-0.012736
-0.0127347
-0.0127336
-0.0127327
-0.0127322
-0.0127321
-0.0127329
-0.0127329
-0.012732
-0.0127322
-0.0127327
-0.0127336
-0.0127347
-0.012736
-0.0127373
-0.0127386
-0.0127398
-0.0127407
-0.0127414
-0.0127417
-0.0127417
-0.0127414
-0.0127407
-0.0127398
-0.0127386
-0.0127373
-0.012736
-0.0127348
-0.0127336
-0.0127327
-0.0127322
-0.0127321
-0.0127329
-0.0127326
-0.0127317
-0.0127319
-0.0127324
-0.0127333
-0.0127344
-0.0127357
-0.012737
-0.0127383
-0.0127394
-0.0127404
-0.012741
-0.0127414
-0.0127414
-0.012741
-0.0127404
-0.0127394
-0.0127383
-0.012737
-0.0127357
-0.0127344
-0.0127333
-0.0127324
-0.0127319
-0.0127318
-0.0127326
-0.012732
-0.0127311
-0.0127313
-0.0127318
-0.0127327
-0.0127338
-0.012735
-0.0127364
-0.0127376
-0.0127388
-0.0127397
-0.0127404
-0.0127407
-0.0127407
-0.0127404
-0.0127397
-0.0127388
-0.0127376
-0.0127364
-0.0127351
-0.0127338
-0.0127327
-0.0127318
-0.0127313
-0.0127312
-0.012732
-0.0127312
-0.0127303
-0.0127304
-0.012731
-0.0127318
-0.0127329
-0.0127342
-0.0127355
-0.0127367
-0.0127378
-0.0127388
-0.0127394
-0.0127398
-0.0127398
-0.0127394
-0.0127388
-0.0127378
-0.0127367
-0.0127355
-0.0127342
-0.0127329
-0.0127319
-0.012731
-0.0127304
-0.0127303
-0.0127312
-0.0127302
-0.0127293
-0.0127294
-0.0127299
-0.0127308
-0.0127319
-0.0127331
-0.0127344
-0.0127356
-0.0127367
-0.0127376
-0.0127383
-0.0127386
-0.0127386
-0.0127383
-0.0127376
-0.0127367
-0.0127356
-0.0127344
-0.0127331
-0.0127319
-0.0127308
-0.01273
-0.0127294
-0.0127293
-0.0127302
-0.012729
-0.0127282
-0.0127283
-0.0127288
-0.0127296
-0.0127307
-0.0127319
-0.0127331
-0.0127344
-0.0127355