/*--------------------------------*- C++ -*----------------------------------*\
  =========                 |
  \\      /  F ield         | OpenFOAM: The Open Source CFD Toolbox
   \\    /   O peration     | Website:  https://openfoam.org
    \\  /    A nd           | Version:  7
     \\/     M anipulation  |
\*---------------------------------------------------------------------------*/
FoamFile
{
    version     2.0;
    format      ascii;
    class       surfaceScalarField;
    location    "0.5";
    object      phi;
}
// * * * * * * * * * * * * * * * * * * * * * * * * * * * * * * * * * * * * * //

dimensions      [0 3 -1 0 0 0 0];

internalField   nonuniform List<scalar> 
91004
(
3.31291e-09
3.31291e-09
0.000182483
6.27055e-09
6.39178e-09
0.00038276
8.49528e-09
7.32704e-09
0.000456654
1.02949e-08
7.50802e-09
0.00047664
1.16702e-08
7.52443e-09
0.000480891
1.2485e-08
7.51991e-09
0.000481648
1.26155e-08
7.52084e-09
0.000481777
1.19995e-08
7.53365e-09
0.00048181
1.06406e-08
7.55989e-09
0.000481831
8.60107e-09
7.59678e-09
0.000481848
5.99221e-09
7.63774e-09
0.000481862
2.96467e-09
7.67423e-09
0.000481871
-3.01179e-10
7.69817e-09
0.000481876
-3.60516e-09
7.70407e-09
0.000481876
-6.73894e-09
7.6914e-09
0.000481871
-9.49852e-09
7.66425e-09
0.000481862
-1.16991e-08
7.63079e-09
0.000481848
-1.31913e-08
7.60104e-09
0.000481831
-1.38788e-08
7.5841e-09
0.000481811
-1.37357e-08
7.5853e-09
0.000481777
-1.28196e-08
7.60392e-09
0.000481649
-1.1269e-08
7.63079e-09
0.000480893
-9.24886e-09
7.63406e-09
0.000476642
-6.78546e-09
7.46781e-09
0.000456656
-3.56603e-09
6.55068e-09
0.000382762
3.47625e-09
0.000182484
6.39178e-09
6.27055e-09
0.00038276
1.24803e-08
1.24803e-08
0.000830846
1.68475e-08
1.44236e-08
0.000999382
2.01609e-08
1.48792e-08
0.00104537
2.25949e-08
1.50058e-08
0.0010552
2.39679e-08
1.51043e-08
0.00105695
2.40694e-08
1.52305e-08
0.00105725
2.27894e-08
1.53898e-08
0.00105733
2.01381e-08
1.55744e-08
0.00105737
1.62302e-08
1.57685e-08
0.00105741
1.12666e-08
1.59507e-08
0.00105743
5.51631e-09
1.60974e-08
0.00105745
-6.97864e-10
1.6187e-08
0.00105746
-7.01443e-09
1.62047e-08
0.00105746
-1.30493e-08
1.61466e-08
0.00105745
-1.8417e-08
1.60203e-08
0.00105743
-2.27573e-08
1.58443e-08
0.0010574
-2.57682e-08
1.56447e-08
0.00105737
-2.72449e-08
1.54499e-08
0.00105733
-2.71184e-08
1.52849e-08
0.00105725
-2.54856e-08
1.51648e-08
0.00105696
-2.25976e-08
1.50854e-08
0.0010552
-1.87161e-08
1.49852e-08
0.00104537
-1.37449e-08
1.45599e-08
0.000999386
-7.00438e-09
1.26575e-08
0.000830849
6.45039e-09
0.000382762
7.32704e-09
8.49528e-09
0.000456654
1.44236e-08
1.68475e-08
0.000999382
1.94631e-08
1.94631e-08
0.00120479
2.32174e-08
2.01363e-08
0.00126104
2.59406e-08
2.03921e-08
0.0012731
2.7456e-08
2.06288e-08
0.00127526
2.75331e-08
2.09184e-08
0.00127562
2.6048e-08
2.12595e-08
0.00127571
2.30089e-08
2.16321e-08
0.00127576
1.85414e-08
2.20057e-08
0.00127581
1.28671e-08
2.23436e-08
0.00127584
6.28529e-09
2.26078e-08
0.00127587
-8.41937e-10
2.27649e-08
0.00127588
-8.10547e-09
2.2792e-08
0.00127588
-1.50649e-08
2.26835e-08
0.00127587
-2.12737e-08
2.24506e-08
0.00127584
-2.63104e-08
2.21219e-08
0.00127581
-2.98194e-08
2.17394e-08
0.00127576
-3.15576e-08
2.13507e-08
0.00127571
-3.14426e-08
2.10009e-08
0.00127562
-2.95874e-08
2.07227e-08
0.00127526
-2.62825e-08
2.05202e-08
0.0012731
-2.18159e-08
2.03132e-08
0.00126105
-1.60328e-08
1.96883e-08
0.0012048
-8.12316e-09
1.70992e-08
0.000999387
8.67827e-09
0.000456657
7.50802e-09
1.02949e-08
0.00047664
1.48792e-08
2.01609e-08
0.00104537
2.01363e-08
2.32174e-08
0.00126104
2.40521e-08
2.40521e-08
0.00132018
2.68953e-08
2.44313e-08
0.00133287
2.84896e-08
2.48067e-08
0.00133515
2.85969e-08
2.52554e-08
0.00133553
2.70843e-08
2.57688e-08
0.00133562
2.39538e-08
2.63142e-08
0.00133568
1.93287e-08
2.68482e-08
0.00133573
1.34335e-08
2.73211e-08
0.00133576
6.57703e-09
2.76838e-08
0.00133579
-8.62448e-10
2.78949e-08
0.0013358
-8.45442e-09
2.79277e-08
0.0013358
-1.57316e-08
2.77779e-08
0.00133579
-2.22197e-08
2.74629e-08
0.00133576
-2.74719e-08
2.70219e-08
0.00133572
-3.11131e-08
2.65105e-08
0.00133568
-3.28915e-08
2.59912e-08
0.00133563
-3.27286e-08
2.55228e-08
0.00133553
-3.07538e-08
2.5148e-08
0.00133515
-2.72818e-08
2.48737e-08
0.00133288
-2.26199e-08
2.4603e-08
0.00132019
-1.66031e-08
2.38397e-08
0.00126105
-8.38407e-09
2.07323e-08
0.00104537
1.05677e-08
0.000476643
7.52443e-09
1.16702e-08
0.000480891
1.50058e-08
2.25949e-08
0.0010552
2.03921e-08
2.59406e-08
0.0012731
2.44313e-08
2.68953e-08
0.00133287
2.73843e-08
2.73843e-08
0.00134571
2.90681e-08
2.78863e-08
0.001348
2.92349e-08
2.84764e-08
0.00134839
2.77416e-08
2.91376e-08
0.00134849
2.45815e-08
2.98269e-08
0.00134855
1.98731e-08
3.04901e-08
0.00134859
1.38423e-08
3.10677e-08
0.00134863
6.80603e-09
3.15036e-08
0.00134865
-8.41458e-10
3.17526e-08
0.00134867
-8.64947e-09
3.17886e-08
0.00134867
-1.61261e-08
3.16119e-08
0.00134865
-2.27743e-08
3.12477e-08
0.00134863
-2.8129e-08
3.07456e-08
0.00134859
-3.18054e-08
3.01716e-08
0.00134855
-3.35526e-08
2.95976e-08
0.00134849
-3.33042e-08
2.90886e-08
0.0013484
-3.12104e-08
2.86891e-08
0.00134801
-2.76109e-08
2.84023e-08
0.00134571
-2.28333e-08
2.81136e-08
0.00133288
-1.67192e-08
2.72564e-08
0.00127311
-8.41505e-09
2.37253e-08
0.0010552
1.21252e-08
0.000480894
7.51991e-09
1.2485e-08
0.000481648
1.51043e-08
2.39679e-08
0.00105695
2.06288e-08
2.7456e-08
0.00127526
2.48067e-08
2.84896e-08
0.00133515
2.78863e-08
2.90681e-08
0.001348
2.96743e-08
2.96743e-08
0.00135031
2.99115e-08
3.03772e-08
0.0013507
2.8443e-08
3.11513e-08
0.00135079
2.52528e-08
3.19456e-08
0.00135085
2.04555e-08
3.26979e-08
0.0013509
1.428e-08
3.33434e-08
0.00135093
7.05466e-09
3.38227e-08
0.00135096
-8.07097e-10
3.40912e-08
0.00135097
-8.83097e-09
3.41275e-08
0.00135097
-1.64985e-08
3.39381e-08
0.00135096
-2.32894e-08
3.35571e-08
0.00135093
-2.87221e-08
3.30425e-08
0.00135089
-3.24058e-08
3.24672e-08
0.00135085
-3.40953e-08
3.19064e-08
0.00135079
-3.37411e-08
3.14243e-08
0.0013507
-3.15176e-08
3.10606e-08
0.00135031
-2.77891e-08
3.08096e-08
0.00134801
-2.29016e-08
3.05395e-08
0.00133515
-1.67059e-08
2.9629e-08
0.00127526
-8.36508e-09
2.57897e-08
0.00105696
1.31756e-08
0.00048165
7.52084e-09
1.26155e-08
0.000481777
1.52305e-08
2.40694e-08
0.00105725
2.09184e-08
2.75331e-08
0.00127562
2.52554e-08
2.85969e-08
0.00133553
2.84764e-08
2.92349e-08
0.00134839
3.03772e-08
2.99115e-08
0.0013507
3.06858e-08
3.06858e-08
0.00135109
2.92356e-08
3.15258e-08
0.00135118
2.60021e-08
3.23747e-08
0.00135124
2.10975e-08
3.31669e-08
0.00135129
1.47567e-08
3.38356e-08
0.00135132
7.32306e-09
3.43231e-08
0.00135135
-7.67941e-10
3.45893e-08
0.00135136
-9.0152e-09
3.46197e-08
0.00135136
-1.68727e-08
3.44287e-08
0.00135135
-2.37972e-08
3.40584e-08
0.00135132
-2.92929e-08
3.35726e-08
0.00135128
-3.29664e-08
3.30466e-08
0.00135124
-3.45829e-08
3.25532e-08
0.00135118
-3.41132e-08
3.21498e-08
0.00135109
-3.17572e-08
3.18657e-08
0.0013507
-2.79011e-08
3.16834e-08
0.0013484
-2.29029e-08
3.14571e-08
0.00133553
-1.66212e-08
3.05375e-08
0.00127563
-8.25886e-09
2.65607e-08
0.00105726
1.35386e-08
0.000481779
7.53365e-09
1.19995e-08
0.00048181
1.53898e-08
2.27894e-08
0.00105733
2.12595e-08
2.6048e-08
0.00127571
2.57688e-08
2.70843e-08
0.00133562
2.91376e-08
2.77416e-08
0.00134849
3.11513e-08
2.8443e-08
0.00135079
3.15258e-08
2.92356e-08
0.00135118
3.0083e-08
3.0083e-08
0.00135128
2.67916e-08
3.09267e-08
0.00135134
2.1764e-08
3.17014e-08
0.00135138
1.52439e-08
3.23433e-08
0.00135142
7.59219e-09
3.27998e-08
0.00135145
-7.3093e-10
3.30386e-08
0.00135146
-9.19623e-09
3.3054e-08
0.00135146
-1.72307e-08
3.2868e-08
0.00135145
-2.42703e-08
3.25289e-08
0.00135142
-2.98084e-08
3.21032e-08
0.00135138
-3.34539e-08
3.16636e-08
0.00135134
-3.49863e-08
3.12756e-08
0.00135128
-3.43999e-08
3.09846e-08
0.00135119
-3.19195e-08
3.08057e-08
0.0013508
-2.79485e-08
3.07088e-08
0.0013485
-2.28482e-08
3.05408e-08
0.00133563
-1.64809e-08
2.96611e-08
0.00127572
-8.10878e-09
2.57689e-08
0.00105733
1.30937e-08
0.000481812
7.55989e-09
1.06406e-08
0.000481831
1.55744e-08
2.01381e-08
0.00105737
2.16321e-08
2.30089e-08
0.00127576
2.63142e-08
2.39538e-08
0.00133568
2.98269e-08
2.45815e-08
0.00134855
3.19456e-08
2.52528e-08
0.00135085
3.23747e-08
2.60021e-08
0.00135124
3.09267e-08
2.67916e-08
0.00135134
2.75654e-08
2.75654e-08
0.00135139
2.24056e-08
2.82627e-08
0.00135144
1.57025e-08
2.88266e-08
0.00135148
7.83673e-09
2.92133e-08
0.0013515
-7.06225e-10
2.93999e-08
0.00135152
-9.36911e-09
2.939e-08
0.00135152
-1.75543e-08
2.9212e-08
0.0013515
-2.46804e-08
2.89179e-08
0.00135148
-3.02351e-08
2.85727e-08
0.00135144
-3.38342e-08
2.82422e-08
0.00135139
-3.52758e-08
2.79801e-08
0.00135134
-3.45796e-08
2.78166e-08
0.00135124
-3.19934e-08
2.77509e-08
0.00135085
-2.79314e-08
2.7741e-08
0.00134855
-2.27489e-08
2.76364e-08
0.00133568
-1.63056e-08
2.68489e-08
0.00127577
-7.93424e-09
2.32947e-08
0.00105737
1.17972e-08
0.000481832
7.59678e-09
8.60107e-09
0.000481848
1.57685e-08
1.62302e-08
0.00105741
2.20057e-08
1.85414e-08
0.00127581
2.68482e-08
1.93287e-08
0.00133573
3.04901e-08
1.98731e-08
0.00134859
3.26979e-08
2.04555e-08
0.0013509
3.31669e-08
2.10975e-08
0.00135129
3.17014e-08
2.1764e-08
0.00135138
2.82627e-08
2.24056e-08
0.00135144
2.29703e-08
2.29703e-08
0.00135149
1.60925e-08
2.34114e-08
0.00135152
8.03043e-09
2.36957e-08
0.00135155
-7.05666e-10
2.38107e-08
0.00135156
-9.53251e-09
2.37679e-08
0.00135156
-1.78316e-08
2.36001e-08
0.00135155
-2.50092e-08
2.33594e-08
0.00135152
-3.05522e-08
2.31052e-08
0.00135149
-3.40883e-08
2.28926e-08
0.00135144
-3.54378e-08
2.27606e-08
0.00135138
-3.46459e-08
2.27228e-08
0.00135129
-3.19805e-08
2.2763e-08
0.0013509
-2.78602e-08
2.28303e-08
0.00134859
-2.26248e-08
2.2788e-08
0.00133573
-1.61236e-08
2.21447e-08
0.00127581
-7.76035e-09
1.91861e-08
0.00105741
9.68608e-09
0.000481849
7.63774e-09
5.99221e-09
0.000481862
1.59507e-08
1.12666e-08
0.00105743
2.23436e-08
1.28671e-08
0.00127584
2.73211e-08
1.34335e-08
0.00133576
3.10677e-08
1.38423e-08
0.00134863
3.33434e-08
1.42799e-08
0.00135093
3.38356e-08
1.47567e-08
0.00135132
3.23433e-08
1.52439e-08
0.00135142
2.88266e-08
1.57025e-08
0.00135148
2.34114e-08
1.60925e-08
0.00135152
1.63795e-08
1.63795e-08
0.00135156
8.15178e-09
1.65417e-08
0.00135159
-7.38707e-10
1.65758e-08
0.0013516
-9.68626e-09
1.64994e-08
0.0013516
-1.80563e-08
1.63462e-08
0.00135159
-2.52479e-08
1.61641e-08
0.00135156
-3.07524e-08
1.60037e-08
0.00135152
-3.42134e-08
1.59064e-08
0.00135148
-3.54751e-08
1.58954e-08
0.00135142
-3.46074e-08
1.59685e-08
0.00135132
-3.18945e-08
1.60968e-08
0.00135093
-2.77527e-08
1.6225e-08
0.00134863
-2.24991e-08
1.62416e-08
0.00133576
-1.59646e-08
1.5791e-08
0.00127584
-7.6124e-09
1.36605e-08
0.00105743
6.87683e-09
0.000481862
7.67423e-09
2.96466e-09
0.000481871
1.60974e-08
5.51631e-09
0.00105745
2.26078e-08
6.28528e-09
0.00127587
2.76838e-08
6.57702e-09
0.00133579
3.15036e-08
6.80602e-09
0.00134865
3.38227e-08
7.05466e-09
0.00135096
3.43231e-08
7.32306e-09
0.00135135
3.27998e-08
7.59219e-09
0.00135145
2.92133e-08
7.83673e-09
0.0013515
2.36957e-08
8.03043e-09
0.00135155
1.65417e-08
8.15178e-09
0.00135159
8.18961e-09
8.18961e-09
0.00135161
-8.08183e-10
8.1477e-09
0.00135162
-9.82801e-09
8.04609e-09
0.00135162
-1.82248e-08
7.91568e-09
0.00135161
-2.53953e-08
7.79674e-09
0.00135159
-3.08396e-08
7.72748e-09
0.00135155
-3.42196e-08
7.73489e-09
0.0013515
-3.54032e-08
7.82721e-09
0.00135145
-3.4483e-08
7.98918e-09
0.00135135
-3.17548e-08
8.18338e-09
0.00135096
-2.76277e-08
8.35614e-09
0.00134865
-2.23916e-08
8.42952e-09
0.00133579
-1.58522e-08
8.21254e-09
0.00127587
-7.51105e-09
7.08954e-09
0.00105745
3.5569e-09
0.000481871
7.69817e-09
-3.01179e-10
0.000481876
1.6187e-08
-6.97865e-10
0.00105746
2.27649e-08
-8.41939e-10
0.00127588
2.78949e-08
-8.6245e-10
0.0013358
3.17526e-08
-8.4146e-10
0.00134867
3.40912e-08
-8.07098e-10
0.00135097
3.45893e-08
-7.67942e-10
0.00135136
3.30386e-08
-7.30932e-10
0.00135146
2.93999e-08
-7.06226e-10
0.00135152
2.38107e-08
-7.05668e-10
0.00135156
1.65758e-08
-7.38709e-10
0.0013516
8.1477e-09
-8.08185e-10
0.00135162
-9.06603e-10
-9.06605e-10
0.00135164
-9.95064e-09
-1.01505e-09
0.00135164
-1.83339e-08
-1.10989e-09
0.00135163
-2.54551e-08
-1.16169e-09
0.0013516
-3.08253e-08
-1.14543e-09
0.00135156
-3.41253e-08
-1.04817e-09
0.00135152
-3.5245e-08
-8.73913e-10
0.00135146
-3.42956e-08
-6.46242e-10
0.00135136
-3.15807e-08
-4.05644e-10
0.00135097
-2.74993e-08
-1.99507e-10
0.00134867
-2.23134e-08
-6.66991e-11
0.0013358
-1.57994e-08
-2.08056e-11
0.00127588
-7.46861e-09
-3.41235e-11
0.00105746
-3.13427e-11
0.000481876
7.70407e-09
-3.60516e-09
0.000481876
1.62047e-08
-7.01443e-09
0.00105746
2.2792e-08
-8.10547e-09
0.00127588
2.79277e-08
-8.45442e-09
0.0013358
3.17886e-08
-8.64947e-09
0.00134867
3.41275e-08
-8.83097e-09
0.00135097
3.46197e-08
-9.0152e-09
0.00135136
3.3054e-08
-9.19623e-09
0.00135146
2.939e-08
-9.36911e-09
0.00135152
2.37679e-08
-9.53252e-09
0.00135156
1.64994e-08
-9.68626e-09
0.0013516
8.04609e-09
-9.82801e-09
0.00135162
-1.01505e-09
-9.95064e-09
0.00135164
-1.00413e-08
-1.00413e-08
0.00135164
-1.83794e-08
-1.00848e-08
0.00135163
-2.54331e-08
-1.00649e-08
0.0013516
-3.07252e-08
-9.97017e-09
0.00135156
-3.39529e-08
-9.79898e-09
0.00135152
-3.50248e-08
-9.56312e-09
0.00135146
-3.40664e-08
-9.28926e-09
0.00135136
-3.1386e-08
-9.01552e-09
0.00135097
-2.73721e-08
-8.77908e-09
0.00134867
-2.22625e-08
-8.57913e-09
0.0013358
-1.58039e-08
-8.2552e-09
0.00127588
-7.4867e-09
-7.14637e-09
0.00105746
-3.61333e-09
0.000481876
7.6914e-09
-6.73894e-09
0.000481871
1.61466e-08
-1.30493e-08
0.00105745
2.26835e-08
-1.50649e-08
0.00127587
2.77779e-08
-1.57316e-08
0.00133579
3.16119e-08
-1.61261e-08
0.00134865
3.39381e-08
-1.64985e-08
0.00135096
3.44288e-08
-1.68727e-08
0.00135135
3.2868e-08
-1.72307e-08
0.00135145
2.9212e-08
-1.75543e-08
0.0013515
2.36001e-08
-1.78316e-08
0.00135155
1.63462e-08
-1.80563e-08
0.00135159
7.91569e-09
-1.82248e-08
0.00135161
-1.10988e-09
-1.83339e-08
0.00135163
-1.00848e-08
-1.83794e-08
0.00135163
-1.83571e-08
-1.83571e-08
0.00135161
-2.53358e-08
-1.82634e-08
0.00135159
-3.05533e-08
-1.80981e-08
0.00135155
-3.37205e-08
-1.7867e-08
0.0013515
-3.47595e-08
-1.75844e-08
0.00135145
-3.38063e-08
-1.72747e-08
0.00135135
-3.1172e-08
-1.69693e-08
0.00135096
-2.7238e-08
-1.66943e-08
0.00134865
-2.22256e-08
-1.64142e-08
0.00133579
-1.58531e-08
-1.58168e-08
0.00127587
-7.55825e-09
-1.3674e-08
0.00105745
-6.91373e-09
0.000481871
7.66425e-09
-9.49852e-09
0.000481862
1.60203e-08
-1.8417e-08
0.00105743
2.24506e-08
-2.12737e-08
0.00127584
2.74629e-08
-2.22197e-08
0.00133576
3.12477e-08
-2.27743e-08
0.00134863
3.35571e-08
-2.32894e-08
0.00135093
3.40584e-08
-2.37972e-08
0.00135132
3.25289e-08
-2.42703e-08
0.00135142
2.89179e-08
-2.46804e-08
0.00135148
2.33594e-08
-2.50092e-08
0.00135152
1.61641e-08
-2.52479e-08
0.00135156
7.79675e-09
-2.53953e-08
0.00135159
-1.16169e-09
-2.54551e-08
0.0013516
-1.00649e-08
-2.54331e-08
0.0013516
-1.82634e-08
-2.53358e-08
0.00135159
-2.51699e-08
-2.51699e-08
0.00135156
-3.03234e-08
-2.49427e-08
0.00135153
-3.34429e-08
-2.46624e-08
0.00135148
-3.44596e-08
-2.4341e-08
0.00135142
-3.35171e-08
-2.39959e-08
0.00135132
-3.09301e-08
-2.36504e-08
0.00135093
-2.70785e-08
-2.33207e-08
0.00134863
-2.21766e-08
-2.29468e-08
0.00133576
-1.59196e-08
-2.21015e-08
0.00127584
-7.66528e-09
-1.91037e-08
0.00105743
-9.68525e-09
0.000481862
7.63079e-09
-1.16991e-08
0.000481848
1.58443e-08
-2.27573e-08
0.0010574
2.21219e-08
-2.63104e-08
0.00127581
2.70219e-08
-2.74719e-08
0.00133572
3.07456e-08
-2.8129e-08
0.00134859
3.30425e-08
-2.87221e-08
0.00135089
3.35726e-08
-2.92929e-08
0.00135128
3.21032e-08
-2.98084e-08
0.00135138
2.85727e-08
-3.02351e-08
0.00135144
2.31052e-08
-3.05522e-08
0.00135149
1.60037e-08
-3.07524e-08
0.00135152
7.72748e-09
-3.08396e-08
0.00135155
-1.14543e-09
-3.08253e-08
0.00135156
-9.97016e-09
-3.07252e-08
0.00135156
-1.80981e-08
-3.05533e-08
0.00135155
-2.49427e-08
-3.03234e-08
0.00135153
-3.00447e-08
-3.00447e-08
0.00135149
-3.31267e-08
-2.97233e-08
0.00135144
-3.4125e-08
-2.93645e-08
0.00135139
-3.31894e-08
-2.89774e-08
0.00135129
-3.06412e-08
-2.85775e-08
0.0013509
-2.68663e-08
-2.81753e-08
0.00134859
-2.20827e-08
-2.7699e-08
0.00133573
-1.59677e-08
-2.66526e-08
0.00127581
-7.78148e-09
-2.30488e-08
0.00105741
-1.17378e-08
0.000481849
7.60104e-09
-1.31913e-08
0.000481831
1.56447e-08
-2.57682e-08
0.00105737
2.17394e-08
-2.98194e-08
0.00127576
2.65105e-08
-3.11131e-08
0.00133568
3.01716e-08
-3.18054e-08
0.00134855
3.24672e-08
-3.24058e-08
0.00135085
3.30466e-08
-3.29664e-08
0.00135124
3.16636e-08
-3.34539e-08
0.00135134
2.82422e-08
-3.38342e-08
0.00135139
2.28926e-08
-3.40883e-08
0.00135144
1.59064e-08
-3.42134e-08
0.00135148
7.73489e-09
-3.42196e-08
0.0013515
-1.04817e-09
-3.41253e-08
0.00135152
-9.79898e-09
-3.39529e-08
0.00135152
-1.7867e-08
-3.37205e-08
0.0013515
-2.46624e-08
-3.34429e-08
0.00135148
-2.97233e-08
-3.31267e-08
0.00135144
-3.27716e-08
-3.27716e-08
0.0013514
-3.37469e-08
-3.23747e-08
0.00135134
-3.28065e-08
-3.19374e-08
0.00135124
-3.02825e-08
-3.14707e-08
0.00135085
-2.65741e-08
-3.09854e-08
0.00134855
-2.1911e-08
-3.04112e-08
0.00133568
-1.59586e-08
-2.92295e-08
0.00127577
-7.87489e-09
-2.53038e-08
0.00105737
-1.29599e-08
0.000481832
7.5841e-09
-1.38788e-08
0.000481811
1.54499e-08
-2.72449e-08
0.00105733
2.13507e-08
-3.15576e-08
0.00127571
2.59912e-08
-3.28915e-08
0.00133563
2.95976e-08
-3.35526e-08
0.00134849
3.19064e-08
-3.40953e-08
0.00135079
3.25532e-08
-3.45829e-08
0.00135118
3.12756e-08
-3.49863e-08
0.00135128
2.79801e-08
-3.52758e-08
0.00135134
2.27606e-08
-3.54378e-08
0.00135138
1.58954e-08
-3.54751e-08
0.00135142
7.82721e-09
-3.54032e-08
0.00135145
-8.73911e-10
-3.5245e-08
0.00135146
-9.56312e-09
-3.50248e-08
0.00135146
-1.75844e-08
-3.47595e-08
0.00135145
-2.4341e-08
-3.44596e-08
0.00135142
-2.93645e-08
-3.4125e-08
0.00135139
-3.23747e-08
-3.37469e-08
0.00135134
-3.3315e-08
-3.3315e-08
0.00135129
-3.23533e-08
-3.28263e-08
0.00135119
-2.98375e-08
-3.22926e-08
0.0013508
-2.61849e-08
-3.17308e-08
0.0013485
-2.16405e-08
-3.10828e-08
0.00133563
-1.58613e-08
-2.98453e-08
0.00127572
-7.91582e-09
-2.58736e-08
0.00105733
-1.33304e-08
0.000481812
7.5853e-09
-1.37357e-08
0.000481777
1.52849e-08
-2.71184e-08
0.00105725
2.10009e-08
-3.14426e-08
0.00127562
2.55228e-08
-3.27286e-08
0.00133553
2.90886e-08
-3.33042e-08
0.0013484
3.14243e-08
-3.37411e-08
0.0013507
3.21498e-08
-3.41132e-08
0.00135109
3.09846e-08
-3.43999e-08
0.00135119
2.78166e-08
-3.45796e-08
0.00135124
2.27228e-08
-3.46459e-08
0.00135129
1.59685e-08
-3.46074e-08
0.00135132
7.98918e-09
-3.4483e-08
0.00135135
-6.4624e-10
-3.42956e-08
0.00135136
-9.28926e-09
-3.40664e-08
0.00135136
-1.72747e-08
-3.38063e-08
0.00135135
-2.39959e-08
-3.35171e-08
0.00135132
-2.89774e-08
-3.31894e-08
0.00135129
-3.19374e-08
-3.28065e-08
0.00135124
-3.28263e-08
-3.23533e-08
0.00135119
-3.18273e-08
-3.18273e-08
0.00135109
-2.93079e-08
-3.12461e-08
0.0013507
-2.5705e-08
-3.06382e-08
0.0013484
-2.12758e-08
-2.99629e-08
0.00133553
-1.56692e-08
-2.87543e-08
0.00127563
-7.88929e-09
-2.49632e-08
0.00105725
-1.29167e-08
0.000481778
7.60392e-09
-1.28196e-08
0.000481649
1.51648e-08
-2.54856e-08
0.00105696
2.07227e-08
-2.95874e-08
0.00127526
2.5148e-08
-3.07538e-08
0.00133515
2.86891e-08
-3.12104e-08
0.00134801
3.10606e-08
-3.15176e-08
0.00135031
3.18657e-08
-3.17572e-08
0.0013507
3.08057e-08
-3.19195e-08
0.0013508
2.77509e-08
-3.19934e-08
0.00135085
2.2763e-08
-3.19805e-08
0.0013509
1.60968e-08
-3.18945e-08
0.00135093
8.18338e-09
-3.17548e-08
0.00135096
-4.05643e-10
-3.15807e-08
0.00135097
-9.01552e-09
-3.1386e-08
0.00135097
-1.69693e-08
-3.1172e-08
0.00135096
-2.36504e-08
-3.09301e-08
0.00135093
-2.85775e-08
-3.06412e-08
0.0013509
-3.14707e-08
-3.02825e-08
0.00135085
-3.22926e-08
-2.98375e-08
0.0013508
-3.12461e-08
-2.93079e-08
0.0013507
-2.87214e-08
-2.87214e-08
0.00135031
-2.51713e-08
-2.81198e-08
0.00134801
-2.08563e-08
-2.74802e-08
0.00133515
-1.54119e-08
-2.63793e-08
0.00127526
-7.80643e-09
-2.29212e-08
0.00105696
-1.18606e-08
0.000481649
7.63079e-09
-1.1269e-08
0.000480893
1.50854e-08
-2.25976e-08
0.0010552
2.05202e-08
-2.62825e-08
0.0012731
2.48737e-08
-2.72818e-08
0.00133288
2.84023e-08
-2.76109e-08
0.00134571
3.08096e-08
-2.77891e-08
0.00134801
3.16834e-08
-2.79011e-08
0.0013484
3.07088e-08
-2.79485e-08
0.0013485
2.7741e-08
-2.79314e-08
0.00134855
2.28303e-08
-2.78602e-08
0.00134859
1.6225e-08
-2.77527e-08
0.00134863
8.35614e-09
-2.76277e-08
0.00134865
-1.99505e-10
-2.74993e-08
0.00134867
-8.77908e-09
-2.73721e-08
0.00134867
-1.66943e-08
-2.7238e-08
0.00134865
-2.33207e-08
-2.70785e-08
0.00134863
-2.81753e-08
-2.68663e-08
0.00134859
-3.09854e-08
-2.65741e-08
0.00134855
-3.17308e-08
-2.61849e-08
0.0013485
-3.06382e-08
-2.5705e-08
0.0013484
-2.81198e-08
-2.51713e-08
0.00134801
-2.46379e-08
-2.46379e-08
0.00134571
-2.04434e-08
-2.4097e-08
0.00133288
-1.51495e-08
-2.31663e-08
0.0012731
-7.70458e-09
-2.01263e-08
0.0010552
-1.03453e-08
0.000480893
7.63406e-09
-9.24886e-09
0.000476642
1.49852e-08
-1.87161e-08
0.00104537
2.03132e-08
-2.18159e-08
0.00126105
2.4603e-08
-2.26199e-08
0.00132019
2.81136e-08
-2.28333e-08
0.00133288
3.05395e-08
-2.29016e-08
0.00133515
3.14571e-08
-2.29029e-08
0.00133553
3.05408e-08
-2.28482e-08
0.00133563
2.76364e-08
-2.27489e-08
0.00133568
2.2788e-08
-2.26248e-08
0.00133573
1.62416e-08
-2.24991e-08
0.00133576
8.42952e-09
-2.23916e-08
0.00133579
-6.66975e-11
-2.23134e-08
0.0013358
-8.57913e-09
-2.22625e-08
0.0013358
-1.64142e-08
-2.22256e-08
0.00133579
-2.29468e-08
-2.21766e-08
0.00133576
-2.7699e-08
-2.20827e-08
0.00133573
-3.04112e-08
-2.1911e-08
0.00133568
-3.10828e-08
-2.16405e-08
0.00133563
-2.99629e-08
-2.12758e-08
0.00133553
-2.74801e-08
-2.08563e-08
0.00133515
-2.4097e-08
-2.04434e-08
0.00133288
-2.0045e-08
-2.0045e-08
0.00132018
-1.49075e-08
-1.93281e-08
0.00126104
-7.61469e-09
-1.67797e-08
0.00104537
-8.52084e-09
0.000476641
7.46781e-09
-6.78546e-09
0.000456656
1.45599e-08
-1.37449e-08
0.000999386
1.96883e-08
-1.60328e-08
0.0012048
2.38397e-08
-1.66031e-08
0.00126105
2.72564e-08
-1.67192e-08
0.00127311
2.9629e-08
-1.67059e-08
0.00127526
3.05375e-08
-1.66212e-08
0.00127563
2.96611e-08
-1.64809e-08
0.00127572
2.68489e-08
-1.63056e-08
0.00127577
2.21447e-08
-1.61236e-08
0.00127581
1.5791e-08
-1.59646e-08
0.00127584
8.21254e-09
-1.58522e-08
0.00127587
-2.08042e-11
-1.57994e-08
0.00127588
-8.2552e-09
-1.58039e-08
0.00127588
-1.58168e-08
-1.58531e-08
0.00127587
-2.21015e-08
-1.59196e-08
0.00127584
-2.66526e-08
-1.59677e-08
0.00127581
-2.92295e-08
-1.59586e-08
0.00127577
-2.98453e-08
-1.58613e-08
0.00127572
-2.87543e-08
-1.56692e-08
0.00127563
-2.63793e-08
-1.54119e-08
0.00127526
-2.31663e-08
-1.51495e-08
0.0012731
-1.93281e-08
-1.49075e-08
0.00126104
-1.44388e-08
-1.44388e-08
0.00120479
-7.4283e-09
-1.25559e-08
0.000999384
-6.34295e-09
0.000456655
6.55068e-09
-3.56603e-09
0.000382762
1.26575e-08
-7.00438e-09
0.000830849
1.70992e-08
-8.12316e-09
0.000999387
2.07323e-08
-8.38407e-09
0.00104537
2.37253e-08
-8.41505e-09
0.0010552
2.57897e-08
-8.36508e-09
0.00105696
2.65607e-08
-8.25886e-09
0.00105726
2.57689e-08
-8.10878e-09
0.00105733
2.32947e-08
-7.93424e-09
0.00105737
1.91861e-08
-7.76035e-09
0.00105741
1.36605e-08
-7.6124e-09
0.00105743
7.08954e-09
-7.51105e-09
0.00105745
-3.41222e-11
-7.46861e-09
0.00105746
-7.14636e-09
-7.4867e-09
0.00105746
-1.3674e-08
-7.55825e-09
0.00105745
-1.91037e-08
-7.66528e-09
0.00105743
-2.30488e-08
-7.78148e-09
0.00105741
-2.53038e-08
-7.87489e-09
0.00105737
-2.58736e-08
-7.91582e-09
0.00105733
-2.49632e-08
-7.88929e-09
0.00105725
-2.29212e-08
-7.80643e-09
0.00105696
-2.01263e-08
-7.70458e-09
0.0010552
-1.67797e-08
-7.61469e-09
0.00104537
-1.25559e-08
-7.4283e-09
0.000999384
-6.52247e-09
-6.52247e-09
0.000830847
-3.39843e-09
0.000382761
3.47625e-09
0.000182484
6.45039e-09
0.000382762
8.67827e-09
0.000456657
1.05677e-08
0.000476643
1.21252e-08
0.000480894
1.31756e-08
0.00048165
1.35386e-08
0.000481779
1.30937e-08
0.000481812
1.17972e-08
0.000481832
9.68608e-09
0.000481849
6.87683e-09
0.000481862
3.5569e-09
0.000481871
-3.13421e-11
0.000481876
-3.61332e-09
0.000481876
-6.91372e-09
0.000481871
-9.68525e-09
0.000481862
-1.17378e-08
0.000481849
-1.29599e-08
0.000481832
-1.33304e-08
0.000481812
-1.29167e-08
0.000481778
-1.18606e-08
0.000481649
-1.03453e-08
0.000480893
-8.52084e-09
0.000476641
-6.34295e-09
0.000456655
-3.39843e-09
0.000382761
0.000182483
4.09028e-09
4.09028e-09
0.000182475
9.43383e-09
7.8535e-09
0.000382747
1.41551e-08
9.01353e-09
0.000456641
1.81084e-08
9.26858e-09
0.000476627
2.11437e-08
9.33317e-09
0.000480879
2.30071e-08
9.38265e-09
0.000481636
2.34905e-08
9.44587e-09
0.000481767
2.24973e-08
9.52347e-09
0.000481802
2.00507e-08
9.6101e-09
0.000481824
1.6284e-08
9.69742e-09
0.000481842
1.14267e-08
9.77535e-09
0.000481857
5.78555e-09
9.83398e-09
0.000481867
-2.7657e-10
9.86607e-09
0.000481873
-6.36521e-09
9.86866e-09
0.000481873
-1.20789e-08
9.84393e-09
0.000481867
-1.7038e-08
9.79921e-09
0.000481857
-2.09115e-08
9.74515e-09
0.000481842
-2.34433e-08
9.693e-09
0.000481824
-2.4476e-08
9.65233e-09
0.000481802
-2.39721e-08
9.62895e-09
0.000481767
-2.20272e-08
9.6234e-09
0.000481637
-1.88638e-08
9.62764e-09
0.00048088
-1.47597e-08
9.60362e-09
0.000476628
-9.87763e-09
9.36776e-09
0.000456642
-4.32894e-09
8.19538e-09
0.000382748
4.33031e-09
0.000182475
7.8535e-09
9.43383e-09
0.000382747
1.81209e-08
1.81209e-08
0.000830825
2.67186e-08
2.07337e-08
0.000999362
3.35789e-08
2.13619e-08
0.00104535
3.8703e-08
2.15657e-08
0.00105518
4.17458e-08
2.17354e-08
0.00105694
4.23651e-08
2.19394e-08
0.00105724
4.03974e-08
2.21773e-08
0.00105731
3.58871e-08
2.24329e-08
0.00105736
2.90686e-08
2.26838e-08
0.0010574
2.03387e-08
2.29048e-08
0.00105743
1.02249e-08
2.30712e-08
0.00105745
-6.4886e-10
2.31639e-08
0.00105746
-1.16008e-08
2.31723e-08
0.00105746
-2.19297e-08
2.30972e-08
0.00105745
-3.0962e-08
2.29506e-08
0.00105743
-3.80992e-08
2.27539e-08
0.0010574
-4.28668e-08
2.25335e-08
0.00105736
-4.49627e-08
2.23167e-08
0.00105732
-4.43018e-08
2.21269e-08
0.00105724
-4.10444e-08
2.19787e-08
0.00105694
-3.5573e-08
2.18666e-08
0.00105518
-2.83023e-08
2.17123e-08
0.00104535
-1.92718e-08
2.1117e-08
0.000999366
-8.46255e-09
1.85092e-08
0.000830828
9.71014e-09
0.000382748
9.01353e-09
1.41551e-08
0.000456641
2.07337e-08
2.67186e-08
0.000999362
3.03386e-08
3.03386e-08
0.00120477
3.78831e-08
3.12299e-08
0.00126102
4.3475e-08
3.15691e-08
0.00127308
4.67637e-08
3.18776e-08
0.00127524
4.73735e-08
3.22419e-08
0.00127561
4.51206e-08
3.26555e-08
0.0012757
4.00516e-08
3.30903e-08
0.00127576
3.24228e-08
3.35102e-08
0.0012758
2.26687e-08
3.38758e-08
0.00127584
1.13683e-08
3.41499e-08
0.00127587
-7.91204e-10
3.43025e-08
0.00127588
-1.30558e-08
3.4316e-08
0.00127588
-2.46448e-08
3.41892e-08
0.00127587
-3.48042e-08
3.39372e-08
0.00127584
-4.28587e-08
3.359e-08
0.0012758
-4.82695e-08
3.31881e-08
0.00127576
-5.06915e-08
3.27761e-08
0.0012757
-5.00266e-08
3.23959e-08
0.00127561
-4.64584e-08
3.20787e-08
0.00127525
-4.0421e-08
3.1828e-08
0.00127309
-3.23608e-08
3.15471e-08
0.00126103
-2.22204e-08
3.06997e-08
0.00120478
-9.81189e-09
2.7084e-08
0.000999366
1.43892e-08
0.000456642
9.26858e-09
1.81084e-08
0.000476627
2.13619e-08
3.35789e-08
0.00104535
3.12299e-08
3.78831e-08
0.00126102
3.89638e-08
3.89638e-08
0.00132017
4.46977e-08
3.94308e-08
0.00133286
4.80767e-08
3.98798e-08
0.00133513
4.87114e-08
4.04018e-08
0.00133552
4.64084e-08
4.09825e-08
0.00133562
4.12096e-08
4.1583e-08
0.00133568
3.33731e-08
4.2155e-08
0.00133572
2.33414e-08
4.26477e-08
0.00133576
1.17074e-08
4.30139e-08
0.00133579
-8.21457e-10
4.32162e-08
0.0013358
-1.34663e-08
4.32332e-08
0.0013358
-2.54184e-08
4.30639e-08
0.00133579
-3.58952e-08
4.2728e-08
0.00133576
-4.41961e-08
4.2264e-08
0.00133572
-4.97634e-08
4.17242e-08
0.00133568
-5.22429e-08
4.11666e-08
0.00133562
-5.15391e-08
4.06467e-08
0.00133552
-4.7852e-08
4.02066e-08
0.00133514
-4.16419e-08
3.98551e-08
0.00133287
-3.33742e-08
3.94833e-08
0.00132017
-2.29634e-08
3.84591e-08
0.00126103
-1.0146e-08
3.41003e-08
0.00104535
1.83503e-08
0.000476629
9.33317e-09
2.11437e-08
0.000480879
2.15657e-08
3.8703e-08
0.00105518
3.15691e-08
4.34749e-08
0.00127308
3.94308e-08
4.46977e-08
0.00133286
4.52794e-08
4.52794e-08
0.0013457
4.87481e-08
4.58567e-08
0.001348
4.94353e-08
4.65189e-08
0.00134839
4.71375e-08
4.72438e-08
0.00134849
4.18902e-08
4.79828e-08
0.00134855
3.395e-08
4.86783e-08
0.00134859
2.37633e-08
4.9271e-08
0.00134863
1.19338e-08
4.97071e-08
0.00134866
-8.14788e-10
4.99457e-08
0.00134867
-1.36831e-08
4.9965e-08
0.00134867
-2.58404e-08
4.9767e-08
0.00134866
-3.64833e-08
4.93773e-08
0.00134863
-4.48952e-08
4.88425e-08
0.00134859
-5.05094e-08
4.82238e-08
0.00134855
-5.29716e-08
4.75879e-08
0.00134849
-5.2196e-08
4.69971e-08
0.00134839
-4.84001e-08
4.64975e-08
0.001348
-4.20671e-08
4.60979e-08
0.0013457
-3.36826e-08
4.56764e-08
0.00133287
-2.31634e-08
4.45237e-08
0.00127309
-1.02234e-08
3.95832e-08
0.00105519
2.14653e-08
0.000480881
9.38265e-09
2.30071e-08
0.000481636
2.17354e-08
4.17458e-08
0.00105694
3.18776e-08
4.67637e-08
0.00127524
3.98798e-08
4.80767e-08
0.00133513
4.58567e-08
4.87481e-08
0.001348
4.94272e-08
4.94272e-08
0.0013503
5.01762e-08
5.01973e-08
0.00135069
4.78891e-08
5.10287e-08
0.00135079
4.2595e-08
5.1866e-08
0.00135085
3.45488e-08
5.2645e-08
0.0013509
2.42028e-08
5.33017e-08
0.00135094
1.21735e-08
5.37795e-08
0.00135097
-7.96738e-10
5.40375e-08
0.00135098
-1.38856e-08
5.4057e-08
0.00135098
-2.62388e-08
5.38449e-08
0.00135097
-3.70323e-08
5.34329e-08
0.00135094
-4.55345e-08
5.2874e-08
0.0013509
-5.11727e-08
5.22351e-08
0.00135085
-5.35963e-08
5.15862e-08
0.00135079
-5.27322e-08
5.09902e-08
0.00135069
-4.88172e-08
5.0491e-08
0.0013503
-4.23562e-08
5.00925e-08
0.001348
-3.38533e-08
4.96606e-08
0.00133514
-2.32361e-08
4.84304e-08
0.00127525
-1.02278e-08
4.31004e-08
0.00105694
2.34539e-08
0.000481638
9.44587e-09
2.34905e-08
0.000481767
2.19394e-08
4.23651e-08
0.00105724
3.22419e-08
4.73735e-08
0.00127561
4.04018e-08
4.87114e-08
0.00133552
4.65189e-08
4.94353e-08
0.00134839
5.01973e-08
5.01762e-08
0.00135069
5.10078e-08