/*--------------------------------*- C++ -*----------------------------------*\
  =========                 |
  \\      /  F ield         | OpenFOAM: The Open Source CFD Toolbox
   \\    /   O peration     | Website:  https://openfoam.org
    \\  /    A nd           | Version:  7
     \\/     M anipulation  |
\*---------------------------------------------------------------------------*/
FoamFile
{
    version     2.0;
    format      ascii;
    class       volVectorField;
    location    "0.5";
    object      U;
}
// * * * * * * * * * * * * * * * * * * * * * * * * * * * * * * * * * * * * * //

dimensions      [0 1 -1 0 0 0 0];

internalField   nonuniform List<vector> 
31632
(
(2.80534e-07 2.80534e-07 0.0324421)
(7.9511e-07 5.45721e-07 0.0680473)
(1.20195e-06 6.2494e-07 0.081184)
(1.51757e-06 6.3868e-07 0.084737)
(1.775e-06 6.38115e-07 0.0854927)
(1.95559e-06 6.35375e-07 0.0856271)
(2.03462e-06 6.32653e-07 0.0856499)
(1.99663e-06 6.30651e-07 0.0856558)
(1.83722e-06 6.29743e-07 0.0856594)
(1.56208e-06 6.29938e-07 0.0856623)
(1.18548e-06 6.30895e-07 0.0856647)
(7.28683e-07 6.32078e-07 0.0856664)
(2.18448e-07 6.32976e-07 0.0856672)
(-3.14435e-07 6.33285e-07 0.0856672)
(-8.36912e-07 6.33072e-07 0.0856663)
(-1.31561e-06 6.32748e-07 0.0856646)
(-1.71885e-06 6.32962e-07 0.0856623)
(-2.01926e-06 6.34375e-07 0.0856594)
(-2.19645e-06 6.37428e-07 0.0856559)
(-2.23991e-06 6.42132e-07 0.08565)
(-2.15166e-06 6.47935e-07 0.0856273)
(-1.9479e-06 6.53649e-07 0.085493)
(-1.65726e-06 6.56405e-07 0.0847373)
(-1.30371e-06 6.43695e-07 0.0811843)
(-8.56191e-07 5.64903e-07 0.0680476)
(-3.00883e-07 2.9693e-07 0.0324423)
(5.45721e-07 7.9511e-07 0.0680473)
(1.57124e-06 1.57124e-06 0.147707)
(2.38953e-06 1.81077e-06 0.177669)
(2.98909e-06 1.86163e-06 0.185844)
(3.45452e-06 1.87055e-06 0.187592)
(3.76903e-06 1.8746e-06 0.187904)
(3.89334e-06 1.88075e-06 0.187956)
(3.80059e-06 1.89028e-06 0.187969)
(3.4834e-06 1.90308e-06 0.187977)
(2.95263e-06 1.91799e-06 0.187983)
(2.23428e-06 1.93299e-06 0.187988)
(1.36647e-06 1.94568e-06 0.187992)
(3.96851e-07 1.95377e-06 0.187994)
(-6.19279e-07 1.95571e-06 0.187994)
(-1.62168e-06 1.95115e-06 0.187992)
(-2.54817e-06 1.94101e-06 0.187988)
(-3.33792e-06 1.92735e-06 0.187983)
(-3.93655e-06 1.91287e-06 0.187977)
(-4.30185e-06 1.90032e-06 0.187969)
(-4.41023e-06 1.89173e-06 0.187956)
(-4.26275e-06 1.88781e-06 0.187904)
(-3.8883e-06 1.88707e-06 0.187592)
(-3.33685e-06 1.8816e-06 0.185845)
(-2.64022e-06 1.83409e-06 0.17767)
(-1.72064e-06 1.59976e-06 0.147708)
(-5.95667e-07 8.24598e-07 0.0680476)
(6.2494e-07 1.20195e-06 0.081184)
(1.81077e-06 2.38953e-06 0.177669)
(2.76276e-06 2.76276e-06 0.214186)
(3.44789e-06 2.85478e-06 0.224186)
(3.97163e-06 2.88501e-06 0.22633)
(4.32177e-06 2.91101e-06 0.226713)
(4.45645e-06 2.94348e-06 0.226777)
(4.3457e-06 2.98293e-06 0.226793)
(3.98089e-06 3.02716e-06 0.226802)
(3.37373e-06 3.07249e-06 0.22681)
(2.55281e-06 3.11425e-06 0.226816)
(1.56033e-06 3.14741e-06 0.22682)
(4.49399e-07 3.16747e-06 0.226822)
(-7.1763e-07 3.17124e-06 0.226822)
(-1.87211e-06 3.15784e-06 0.22682)
(-2.94244e-06 3.12865e-06 0.226816)
(-3.85771e-06 3.08741e-06 0.22681)
(-4.55398e-06 3.03959e-06 0.226802)
(-4.98129e-06 2.99142e-06 0.226793)
(-5.11153e-06 2.94869e-06 0.226777)
(-4.9458e-06 2.91538e-06 0.226713)
(-4.51783e-06 2.89167e-06 0.22633)
(-3.88474e-06 2.86603e-06 0.224186)
(-3.07924e-06 2.78007e-06 0.214187)
(-2.00352e-06 2.41462e-06 0.17767)
(-6.91215e-07 1.22787e-06 0.0811845)
(6.3868e-07 1.51757e-06 0.084737)
(1.86163e-06 2.98909e-06 0.185844)
(2.85478e-06 3.44789e-06 0.224186)
(3.5697e-06 3.5697e-06 0.234699)
(4.11598e-06 3.62058e-06 0.236956)
(4.48245e-06 3.66955e-06 0.237359)
(4.62632e-06 3.72882e-06 0.237427)
(4.51617e-06 3.79766e-06 0.237444)
(4.1421e-06 3.87183e-06 0.237454)
(3.51506e-06 3.94532e-06 0.237462)
(2.66367e-06 4.01111e-06 0.237468)
(1.63109e-06 4.0621e-06 0.237472)
(4.72383e-07 4.0921e-06 0.237475)
(-7.46957e-07 4.09696e-06 0.237475)
(-1.95429e-06 4.07571e-06 0.237472)
(-3.07361e-06 4.03057e-06 0.237468)
(-4.02953e-06 3.96698e-06 0.237462)
(-4.75432e-06 3.89281e-06 0.237454)
(-5.19561e-06 3.81715e-06 0.237444)
(-5.32479e-06 3.74858e-06 0.237428)
(-5.14459e-06 3.69346e-06 0.23736)
(-4.6923e-06 3.65299e-06 0.236957)
(-4.0293e-06 3.61307e-06 0.2347)
(-3.19021e-06 3.50065e-06 0.224187)
(-2.07168e-06 3.0427e-06 0.185845)
(-7.13191e-07 1.54925e-06 0.0847375)
(6.38115e-07 1.775e-06 0.0854927)
(1.87055e-06 3.45452e-06 0.187592)
(2.88501e-06 3.97163e-06 0.22633)
(3.62058e-06 4.11598e-06 0.236956)
(4.18586e-06 4.18586e-06 0.239237)
(4.56874e-06 4.25653e-06 0.239645)
(4.72503e-06 4.34037e-06 0.239714)
(4.62165e-06 4.43534e-06 0.239731)
(4.24711e-06 4.53535e-06 0.239741)
(3.61119e-06 4.63244e-06 0.239749)
(2.74215e-06 4.71777e-06 0.239755)
(1.68387e-06 4.78272e-06 0.23976)
(4.93277e-07 4.82016e-06 0.239762)
(-7.61016e-07 4.82571e-06 0.239762)
(-2.00262e-06 4.79891e-06 0.23976)
(-3.15168e-06 4.74314e-06 0.239755)
(-4.12933e-06 4.66554e-06 0.239749)
(-4.86542e-06 4.576e-06 0.239741)
(-5.30677e-06 4.48553e-06 0.239731)
(-5.42582e-06 4.40432e-06 0.239715)
(-5.2281e-06 4.33965e-06 0.239646)
(-4.75481e-06 4.29261e-06 0.239238)
(-4.07141e-06 4.24634e-06 0.236957)
(-3.21529e-06 4.11547e-06 0.226331)
(-2.0823e-06 3.58154e-06 0.187593)
(-7.15178e-07 1.82959e-06 0.0854933)
(6.35375e-07 1.95559e-06 0.0856271)
(1.8746e-06 3.76903e-06 0.187904)
(2.91101e-06 4.32177e-06 0.226713)
(3.66955e-06 4.48245e-06 0.237359)
(4.25653e-06 4.56874e-06 0.239645)
(4.65842e-06 4.65842e-06 0.240054)
(4.82926e-06 4.76318e-06 0.240123)
(4.73403e-06 4.87961e-06 0.240141)
(4.35942e-06 5.00009e-06 0.24015)
(3.71407e-06 5.11516e-06 0.240158)
(2.82609e-06 5.2147e-06 0.240165)
(1.74047e-06 5.28927e-06 0.240169)
(5.16586e-07 5.33151e-06 0.240171)
(-7.73276e-07 5.33747e-06 0.240171)
(-2.04852e-06 5.3076e-06 0.240169)
(-3.22524e-06 5.24668e-06 0.240164)
(-4.22114e-06 5.1634e-06 0.240158)
(-4.96411e-06 5.06905e-06 0.24015)
(-5.40091e-06 4.97568e-06 0.240141)
(-5.50587e-06 4.89388e-06 0.240124)
(-5.28801e-06 4.83066e-06 0.240055)
(-4.79281e-06 4.78602e-06 0.239646)
(-4.08954e-06 4.74019e-06 0.237361)
(-3.2178e-06 4.59732e-06 0.226714)
(-2.07435e-06 4.00239e-06 0.187905)
(-7.09418e-07 2.04608e-06 0.0856276)
(6.32653e-07 2.03462e-06 0.0856499)
(1.88075e-06 3.89334e-06 0.187956)
(2.94348e-06 4.45645e-06 0.226777)
(3.72882e-06 4.62632e-06 0.237427)
(4.34037e-06 4.72503e-06 0.239714)
(4.76318e-06 4.82926e-06 0.240123)
(4.94937e-06 4.94937e-06 0.240193)
(4.86184e-06 5.0807e-06 0.24021)
(4.48555e-06 5.2145e-06 0.240219)
(3.82814e-06 5.34036e-06 0.240227)
(2.91796e-06 5.44756e-06 0.240234)
(1.80163e-06 5.52654e-06 0.240238)
(5.41587e-07 5.57038e-06 0.24024)
(-7.85734e-07 5.57608e-06 0.24024)
(-2.09521e-06 5.5453e-06 0.240238)
(-3.29873e-06 5.48417e-06 0.240234)
(-4.3108e-06 5.40258e-06 0.240227)
(-5.05784e-06 5.31259e-06 0.240219)
(-5.48723e-06 5.22631e-06 0.24021)
(-5.57593e-06 5.15368e-06 0.240193)
(-5.33691e-06 5.10043e-06 0.240124)
(-4.81987e-06 5.06483e-06 0.239715)
(-4.0971e-06 5.02445e-06 0.237428)
(-3.2092e-06 4.8763e-06 0.226778)
(-2.05467e-06 4.24317e-06 0.187957)
(-6.97827e-07 2.16552e-06 0.0856504)
(6.30651e-07 1.99663e-06 0.0856558)
(1.89028e-06 3.80059e-06 0.187969)
(2.98293e-06 4.3457e-06 0.226793)
(3.79766e-06 4.51617e-06 0.237444)
(4.43534e-06 4.62165e-06 0.239731)
(4.87961e-06 4.73403e-06 0.240141)
(5.0807e-06 4.86184e-06 0.24021)
(4.99952e-06 4.99952e-06 0.240227)
(4.61942e-06 5.13768e-06 0.240237)
(3.9474e-06 5.26562e-06 0.240245)
(3.01247e-06 5.37275e-06 0.240251)
(1.86339e-06 5.45006e-06 0.240255)
(5.66124e-07 5.49163e-06 0.240258)
(-7.98478e-07 5.49579e-06 0.240258)
(-2.1407e-06 5.46549e-06 0.240255)
(-3.36836e-06 5.40804e-06 0.240251)
(-4.39327e-06 5.33405e-06 0.240244)
(-5.14107e-06 5.25556e-06 0.240237)
(-5.56053e-06 5.18386e-06 0.240227)
(-5.63186e-06 5.12736e-06 0.24021)
(-5.37231e-06 5.08974e-06 0.240141)
(-4.8354e-06 5.06719e-06 0.239732)
(-4.09527e-06 5.03542e-06 0.237445)
(-3.19195e-06 4.88953e-06 0.226794)
(-2.02595e-06 4.25025e-06 0.18797)
(-6.8162e-07 2.16262e-06 0.0856562)
(6.29743e-07 1.83722e-06 0.0856594)
(1.90308e-06 3.4834e-06 0.187977)
(3.02716e-06 3.98089e-06 0.226802)
(3.87183e-06 4.1421e-06 0.237454)
(4.53535e-06 4.24711e-06 0.239741)
(5.00009e-06 4.35942e-06 0.24015)
(5.2145e-06 4.48555e-06 0.240219)
(5.13768e-06 4.61942e-06 0.240237)
(4.75169e-06 4.75169e-06 0.240246)
(4.06323e-06 4.87206e-06 0.240254)
(3.1024e-06 4.97073e-06 0.240261)
(1.9205e-06 5.03985e-06 0.240265)
(5.87314e-07 5.07495e-06 0.240267)
(-8.11895e-07 5.07586e-06 0.240267)
(-2.18301e-06 5.04669e-06 0.240265)
(-3.43025e-06 4.99562e-06 0.240261)
(-4.46339e-06 4.93335e-06 0.240254)
(-5.20815e-06 4.87116e-06 0.240246)
(-5.6155e-06 4.81874e-06 0.240237)
(-5.66942e-06 4.78227e-06 0.24022)
(-5.39151e-06 4.76293e-06 0.240151)
(-4.83852e-06 4.7548e-06 0.239742)
(-4.08505e-06 4.73312e-06 0.237455)
(-3.16886e-06 4.59767e-06 0.226803)
(-1.9921e-06 3.99128e-06 0.187977)
(-6.62836e-07 2.02384e-06 0.0856597)
(6.29938e-07 1.56208e-06 0.0856623)
(1.91799e-06 2.95263e-06 0.187983)
(3.07249e-06 3.37373e-06 0.22681)
(3.94532e-06 3.51506e-06 0.237462)
(4.63244e-06 3.61119e-06 0.239749)
(5.11516e-06 3.71407e-06 0.240158)
(5.34036e-06 3.82814e-06 0.240227)
(5.26562e-06 3.9474e-06 0.240245)
(4.87206e-06 4.06323e-06 0.240254)
(4.16644e-06 4.16644e-06 0.240262)
(3.18026e-06 4.24862e-06 0.240269)
(1.96761e-06 4.30353e-06 0.240273)
(6.02121e-07 4.32835e-06 0.240275)
(-8.26748e-07 4.32436e-06 0.240275)
(-2.22096e-06 4.2966e-06 0.240273)
(-3.48175e-06 4.25356e-06 0.240269)
(-4.51779e-06 4.2054e-06 0.240262)
(-5.25573e-06 4.16194e-06 0.240254)
(-5.64939e-06 4.1307e-06 0.240245)
(-5.68695e-06 4.11519e-06 0.240228)
(-5.39418e-06 4.11399e-06 0.240159)
(-4.83028e-06 4.11941e-06 0.239749)
(-4.06893e-06 4.10797e-06 0.237462)
(-3.14396e-06 3.99143e-06 0.22681)
(-1.95824e-06 3.45998e-06 0.187983)
(-6.44123e-07 1.7485e-06 0.0856625)
(6.30895e-07 1.18548e-06 0.0856647)
(1.93299e-06 2.23428e-06 0.187988)
(3.11425e-06 2.55281e-06 0.226816)
(4.01112e-06 2.66367e-06 0.237468)
(4.71777e-06 2.74215e-06 0.239755)
(5.2147e-06 2.82609e-06 0.240165)
(5.44756e-06 2.91795e-06 0.240234)
(5.37275e-06 3.01246e-06 0.240251)
(4.97073e-06 3.1024e-06 0.240261)
(4.24862e-06 3.18026e-06 0.240269)
(3.23949e-06 3.23949e-06 0.240275)
(2.00023e-06 3.2757e-06 0.240279)
(6.08137e-07 3.2877e-06 0.240282)
(-8.43654e-07 3.27797e-06 0.240282)
(-2.25384e-06 3.25199e-06 0.240279)
(-3.52149e-06 3.21797e-06 0.240275)
(-4.55505e-06 3.18487e-06 0.240269)
(-5.28289e-06 3.16052e-06 0.240261)
(-5.66221e-06 3.14989e-06 0.240251)
(-5.68544e-06 3.15381e-06 0.240234)
(-5.38221e-06 3.16847e-06 0.240165)
(-4.81326e-06 3.18509e-06 0.239755)
(-4.05016e-06 3.1833e-06 0.237468)
(-3.12154e-06 3.09383e-06 0.226816)
(-1.92955e-06 2.67777e-06 0.187988)
(-6.28154e-07 1.34902e-06 0.0856647)
(6.32078e-07 7.28683e-07 0.0856664)
(1.94568e-06 1.36647e-06 0.187992)
(3.14741e-06 1.56032e-06 0.22682)
(4.0621e-06 1.63109e-06 0.237472)
(4.78272e-06 1.68387e-06 0.23976)
(5.28927e-06 1.74047e-06 0.240169)
(5.52654e-06 1.80163e-06 0.240238)
(5.45006e-06 1.86339e-06 0.240255)
(5.03985e-06 1.9205e-06 0.240265)
(4.30353e-06 1.96761e-06 0.240273)
(3.2757e-06 2.00023e-06 0.240279)
(2.01581e-06 2.01581e-06 0.240284)
(6.04381e-07 2.01454e-06 0.240286)
(-8.62472e-07 1.99961e-06 0.240286)
(-2.28098e-06 1.97638e-06 0.240284)
(-3.5489e-06 1.9521e-06 0.24028)
(-4.57528e-06 1.93398e-06 0.240273)
(-5.29074e-06 1.92751e-06 0.240265)
(-5.65606e-06 1.93513e-06 0.240255)
(-5.66781e-06 1.95524e-06 0.240238)
(-5.35885e-06 1.98224e-06 0.240169)
(-4.79063e-06 2.00714e-06 0.23976)
(-4.03178e-06 2.01438e-06 0.237472)
(-3.10506e-06 1.95931e-06 0.22682)
(-1.91019e-06 1.69273e-06 0.187992)
(-6.1715e-07 8.50201e-07 0.0856663)
(6.32976e-07 2.18448e-07 0.0856672)
(1.95377e-06 3.96851e-07 0.187994)
(3.16747e-06 4.49399e-07 0.226822)
(4.0921e-06 4.72383e-07 0.237475)
(4.82016e-06 4.93276e-07 0.239762)
(5.33151e-06 5.16585e-07 0.240171)
(5.57038e-06 5.41587e-07 0.24024)
(5.49163e-06 5.66124e-07 0.240258)
(5.07495e-06 5.87314e-07 0.240267)
(4.32835e-06 6.02121e-07 0.240275)
(3.2877e-06 6.08137e-07 0.240282)
(2.01454e-06 6.04381e-07 0.240286)
(5.91932e-07 5.91932e-07 0.240289)
(-8.81828e-07 5.74072e-07 0.240289)
(-2.30137e-06 5.55383e-07 0.240286)
(-3.56392e-06 5.4156e-07 0.240282)
(-4.57968e-06 5.37657e-07 0.240276)
(-5.28177e-06 5.46813e-07 0.240268)
(-5.63446e-06 5.69207e-07 0.240258)
(-5.63797e-06 6.01468e-07 0.240241)
(-5.32768e-06 6.37073e-07 0.240171)
(-4.76511e-06 6.6771e-07 0.239762)
(-4.01564e-06 6.83894e-07 0.237474)
(-3.09621e-06 6.69121e-07 0.226822)
(-1.90253e-06 5.75617e-07 0.187993)
(-6.12517e-07 2.8723e-07 0.0856671)
(6.33285e-07 -3.14436e-07 0.0856672)
(1.95571e-06 -6.19279e-07 0.187994)
(3.17124e-06 -7.1763e-07 0.226822)
(4.09696e-06 -7.46957e-07 0.237475)
(4.82571e-06 -7.61016e-07 0.239762)
(5.33747e-06 -7.73276e-07 0.240171)
(5.57608e-06 -7.85734e-07 0.24024)
(5.49579e-06 -7.98478e-07 0.240258)
(5.07586e-06 -8.11895e-07 0.240267)
(4.32436e-06 -8.26748e-07 0.240275)
(3.27797e-06 -8.43655e-07 0.240282)
(1.99961e-06 -8.62472e-07 0.240286)
(5.74072e-07 -8.81828e-07 0.240289)
(-8.99028e-07 -8.99029e-07 0.240289)
(-2.31351e-06 -9.1081e-07 0.240286)
(-3.56666e-06 -9.13474e-07 0.240282)
(-4.57006e-06 -9.04209e-07 0.240276)
(-5.25922e-06 -8.81998e-07 0.240268)
(-5.60142e-06 -8.48323e-07 0.240258)
(-5.59984e-06 -8.07497e-07 0.240241)
(-5.29168e-06 -7.66054e-07 0.240171)
(-4.73816e-06 -7.30873e-07 0.239762)
(-4.00174e-06 -7.04873e-07 0.237474)
(-3.09437e-06 -6.75659e-07 0.226822)
(-1.90655e-06 -5.8653e-07 0.187993)
(-6.14619e-07 -2.97444e-07 0.0856671)
(6.33072e-07 -8.36912e-07 0.0856663)
(1.95115e-06 -1.62168e-06 0.187992)
(3.15784e-06 -1.87211e-06 0.22682)
(4.07571e-06 -1.95429e-06 0.237472)
(4.79891e-06 -2.00262e-06 0.23976)
(5.3076e-06 -2.04852e-06 0.240169)
(5.5453e-06 -2.09521e-06 0.240238)
(5.46549e-06 -2.1407e-06 0.240255)
(5.04669e-06 -2.18302e-06 0.240265)
(4.2966e-06 -2.22096e-06 0.240273)
(3.25199e-06 -2.25384e-06 0.240279)
(1.97638e-06 -2.28098e-06 0.240284)
(5.55383e-07 -2.30137e-06 0.240286)
(-9.1081e-07 -2.31351e-06 0.240286)
(-2.31583e-06 -2.31583e-06 0.240284)
(-3.55734e-06 -2.30676e-06 0.24028)
(-4.54823e-06 -2.28554e-06 0.240273)
(-5.22592e-06 -2.25273e-06 0.240266)
(-5.56001e-06 -2.2107e-06 0.240256)
(-5.55586e-06 -2.16375e-06 0.240238)
(-5.25193e-06 -2.11765e-06 0.240169)
(-4.7092e-06 -2.07742e-06 0.23976)
(-3.98812e-06 -2.03981e-06 0.237472)
(-3.09709e-06 -1.96568e-06 0.22682)
(-1.92045e-06 -1.70009e-06 0.187992)
(-6.22918e-07 -8.58611e-07 0.0856663)
(6.32748e-07 -1.31561e-06 0.0856646)
(1.94101e-06 -2.54817e-06 0.187988)
(3.12865e-06 -2.94244e-06 0.226816)
(4.03057e-06 -3.07361e-06 0.237468)
(4.74314e-06 -3.15168e-06 0.239755)
(5.24668e-06 -3.22524e-06 0.240164)
(5.48417e-06 -3.29873e-06 0.240234)
(5.40804e-06 -3.36836e-06 0.240251)
(4.99562e-06 -3.43025e-06 0.240261)
(4.25356e-06 -3.48175e-06 0.240269)
(3.21797e-06 -3.52149e-06 0.240275)
(1.9521e-06 -3.5489e-06 0.24028)
(5.4156e-07 -3.56392e-06 0.240282)
(-9.13474e-07 -3.56666e-06 0.240282)
(-2.30676e-06 -3.55734e-06 0.24028)
(-3.53638e-06 -3.53638e-06 0.240275)
(-4.51606e-06 -3.50456e-06 0.240269)
(-5.18442e-06 -3.46328e-06 0.240261)
(-5.51253e-06 -3.41486e-06 0.240251)
(-5.5072e-06 -3.3628e-06 0.240234)
(-5.20792e-06 -3.31151e-06 0.240165)
(-4.6759e-06 -3.26417e-06 0.239755)
(-3.97096e-06 -3.21259e-06 0.237468)
(-3.09977e-06 -3.09579e-06 0.226816)
(-1.94009e-06 -2.67545e-06 0.187988)
(-6.35749e-07 -1.3532e-06 0.0856647)
(6.32962e-07 -1.71885e-06 0.0856623)
(1.92735e-06 -3.33792e-06 0.187983)
(3.08741e-06 -3.85771e-06 0.22681)
(3.96698e-06 -4.02953e-06 0.237462)
(4.66554e-06 -4.12933e-06 0.239749)
(5.1634e-06 -4.22114e-06 0.240158)
(5.40258e-06 -4.3108e-06 0.240227)
(5.33405e-06 -4.39327e-06 0.240244)
(4.93335e-06 -4.46339e-06 0.240254)
(4.2054e-06 -4.51779e-06 0.240262)
(3.18487e-06 -4.55505e-06 0.240269)
(1.93398e-06 -4.57528e-06 0.240273)
(5.37658e-07 -4.57968e-06 0.240276)
(-9.04209e-07 -4.57006e-06 0.240276)
(-2.28554e-06 -4.54823e-06 0.240273)
(-3.50456e-06 -4.51606e-06 0.240269)
(-4.47514e-06 -4.47514e-06 0.240263)
(-5.13625e-06 -4.42686e-06 0.240255)
(-5.45965e-06 -4.37272e-06 0.240245)
(-5.45311e-06 -4.31487e-06 0.240228)
(-5.15728e-06 -4.25627e-06 0.240159)
(-4.63442e-06 -4.19874e-06 0.239749)
(-3.94531e-06 -4.13107e-06 0.237462)
(-3.09665e-06 -3.97735e-06 0.22681)
(-1.95975e-06 -3.43765e-06 0.187983)
(-6.50464e-07 -1.74502e-06 0.0856625)
(6.34375e-07 -2.01926e-06 0.0856594)
(1.91287e-06 -3.93655e-06 0.187977)
(3.03959e-06 -4.55398e-06 0.226802)
(3.89281e-06 -4.75432e-06 0.237454)
(4.576e-06 -4.86542e-06 0.239741)
(5.06905e-06 -4.96411e-06 0.24015)
(5.31259e-06 -5.05784e-06 0.240219)
(5.25556e-06 -5.14107e-06 0.240237)
(4.87116e-06 -5.20815e-06 0.240246)
(4.16194e-06 -5.25573e-06 0.240254)
(3.16052e-06 -5.28289e-06 0.240261)
(1.92751e-06 -5.29074e-06 0.240265)
(5.46813e-07 -5.28177e-06 0.240268)
(-8.81997e-07 -5.25922e-06 0.240268)
(-2.25273e-06 -5.22592e-06 0.240266)
(-3.46328e-06 -5.18442e-06 0.240261)
(-4.42686e-06 -5.13625e-06 0.240255)
(-5.08202e-06 -5.08202e-06 0.240247)
(-5.40066e-06 -5.02193e-06 0.240237)
(-5.39147e-06 -4.95667e-06 0.24022)
(-5.09667e-06 -4.8881e-06 0.240151)
(-4.58061e-06 -4.81757e-06 0.239742)
(-3.90633e-06 -4.73309e-06 0.237454)
(-3.08187e-06 -4.5516e-06 0.226803)
(-1.97281e-06 -3.93693e-06 0.187977)
(-6.63659e-07 -2.00906e-06 0.0856596)
(6.37428e-07 -2.19645e-06 0.0856559)
(1.90032e-06 -4.30185e-06 0.187969)
(2.99142e-06 -4.98129e-06 0.226793)
(3.81715e-06 -5.19561e-06 0.237444)
(4.48553e-06 -5.30677e-06 0.239731)
(4.97568e-06 -5.40091e-06 0.240141)
(5.22631e-06 -5.48723e-06 0.24021)
(5.18386e-06 -5.56053e-06 0.240227)
(4.81874e-06 -5.6155e-06 0.240237)
(4.1307e-06 -5.64939e-06 0.240245)
(3.14989e-06 -5.66221e-06 0.240251)
(1.93513e-06 -5.65606e-06 0.240255)
(5.69208e-07 -5.63446e-06 0.240258)
(-8.48323e-07 -5.60142e-06 0.240258)
(-2.2107e-06 -5.56001e-06 0.240256)
(-3.41486e-06 -5.51253e-06 0.240251)
(-4.37272e-06 -5.45965e-06 0.240245)
(-5.02193e-06 -5.40066e-06 0.240237)
(-5.3344e-06 -5.3344e-06 0.240228)
(-5.32003e-06 -5.26046e-06 0.240211)
(-5.02337e-06 -5.18036e-06 0.240142)
(-4.51175e-06 -5.096e-06 0.239732)
(-3.85113e-06 -4.99669e-06 0.237445)
(-3.05136e-06 -4.79941e-06 0.226794)
(-1.97349e-06 -4.15663e-06 0.18797)
(-6.71972e-07 -2.13444e-06 0.0856562)
(6.42132e-07 -2.23991e-06 0.08565)
(1.89173e-06 -4.41023e-06 0.187956)
(2.94869e-06 -5.11153e-06 0.226777)
(3.74858e-06 -5.32479e-06 0.237428)
(4.40432e-06 -5.42582e-06 0.239715)
(4.89388e-06 -5.50587e-06 0.240124)
(5.15368e-06 -5.57593e-06 0.240193)
(5.12736e-06 -5.63186e-06 0.24021)
(4.78227e-06 -5.66942e-06 0.24022)
(4.11519e-06 -5.68695e-06 0.240228)
(3.15381e-06 -5.68544e-06 0.240234)
(1.95524e-06 -5.66781e-06 0.240238)
(6.01468e-07 -5.63797e-06 0.240241)
(-8.07496e-07 -5.59984e-06 0.240241)
(-2.16375e-06 -5.55586e-06 0.240238)
(-3.3628e-06 -5.5072e-06 0.240234)
(-4.31487e-06 -5.45311e-06 0.240228)
(-4.95667e-06 -5.39147e-06 0.24022)
(-5.26046e-06 -5.32003e-06 0.240211)
(-5.23806e-06 -5.23806e-06 0.240194)
(-4.93714e-06 -5.14763e-06 0.240125)
(-4.42852e-06 -5.05222e-06 0.239715)
(-3.78094e-06 -4.94378e-06 0.237428)
(-3.00532e-06 -4.74435e-06 0.226778)
(-1.9595e-06 -4.11537e-06 0.187957)
(-6.73432e-07 -2.12546e-06 0.0856503)
(6.47935e-07 -2.15166e-06 0.0856273)
(1.88781e-06 -4.26275e-06 0.187904)
(2.91538e-06 -4.9458e-06 0.226713)
(3.69346e-06 -5.14459e-06 0.23736)
(4.33965e-06 -5.2281e-06 0.239646)
(4.83066e-06 -5.28801e-06 0.240055)
(5.10043e-06 -5.33691e-06 0.240124)
(5.08974e-06 -5.37231e-06 0.240141)
(4.76293e-06 -5.39151e-06 0.240151)
(4.11399e-06 -5.39418e-06 0.240159)
(3.16847e-06 -5.38221e-06 0.240165)
(1.98224e-06 -5.35885e-06 0.240169)
(6.37073e-07 -5.32768e-06 0.240171)
(-7.66054e-07 -5.29168e-06 0.240171)
(-2.11765e-06 -5.25193e-06 0.240169)
(-3.31151e-06 -5.20792e-06 0.240165)
(-4.25627e-06 -5.15728e-06 0.240159)
(-4.8881e-06 -5.09667e-06 0.240151)
(-5.18036e-06 -5.02337e-06 0.240142)
(-5.14763e-06 -4.93714e-06 0.240125)
(-4.84145e-06 -4.84145e-06 0.240056)
(-4.33621e-06 -4.74194e-06 0.239647)
(-3.70227e-06 -4.63367e-06 0.23736)
(-2.94985e-06 -4.44575e-06 0.226713)
(-1.93424e-06 -3.86154e-06 0.187904)
(-6.68739e-07 -2.00023e-06 0.0856274)
(6.53649e-07 -1.9479e-06 0.085493)
(1.88707e-06 -3.8883e-06 0.187592)
(2.89167e-06 -4.51783e-06 0.22633)
(3.65299e-06 -4.6923e-06 0.236957)
(4.29261e-06 -4.75481e-06 0.239238)
(4.78603e-06 -4.79281e-06 0.239646)
(5.06484e-06 -4.81987e-06 0.239715)
(5.06719e-06 -4.8354e-06 0.239732)
(4.7548e-06 -4.83852e-06 0.239742)
(4.11941e-06 -4.83028e-06 0.239749)
(3.18509e-06 -4.81326e-06 0.239755)
(2.00714e-06 -4.79063e-06 0.23976)
(6.6771e-07 -4.76511e-06 0.239762)
(-7.30873e-07 -4.73816e-06 0.239762)
(-2.07742e-06 -4.7092e-06 0.23976)
(-3.26417e-06 -4.6759e-06 0.239755)
(-4.19874e-06 -4.63442e-06 0.239749)
(-4.81757e-06 -4.58061e-06 0.239742)
(-5.096e-06 -4.51175e-06 0.239732)
(-5.05222e-06 -4.42852e-06 0.239715)
(-4.74194e-06 -4.33621e-06 0.239647)
(-4.24265e-06 -4.24265e-06 0.239238)
(-3.62474e-06 -4.14564e-06 0.236957)
(-2.8953e-06 -3.98107e-06 0.22633)
(-1.9064e-06 -3.45969e-06 0.187592)
(-6.61454e-07 -1.78716e-06 0.085493)
(6.56405e-07 -1.65726e-06 0.0847373)
(1.8816e-06 -3.33685e-06 0.185845)
(2.86603e-06 -3.88474e-06 0.224186)
(3.61307e-06 -4.0293e-06 0.2347)
(4.24634e-06 -4.07141e-06 0.236957)
(4.74019e-06 -4.08954e-06 0.237361)
(5.02445e-06 -4.0971e-06 0.237428)
(5.03542e-06 -4.09527e-06 0.237445)
(4.73312e-06 -4.08505e-06 0.237455)
(4.10797e-06 -4.06893e-06 0.237462)
(3.1833e-06 -4.05016e-06 0.237468)
(2.01438e-06 -4.03178e-06 0.237472)
(6.83894e-07 -4.01564e-06 0.237474)
(-7.04873e-07 -4.00174e-06 0.237474)
(-2.03981e-06 -3.98812e-06 0.237472)
(-3.21259e-06 -3.97096e-06 0.237468)
(-4.13107e-06 -3.94531e-06 0.237462)
(-4.73309e-06 -3.90633e-06 0.237454)
(-4.99669e-06 -3.85113e-06 0.237445)
(-4.94378e-06 -3.78094e-06 0.237428)
(-4.63367e-06 -3.70227e-06 0.23736)
(-4.14564e-06 -3.62474e-06 0.236957)
(-3.54845e-06 -3.54845e-06 0.2347)
(-2.8445e-06 -3.41576e-06 0.224186)
(-1.88164e-06 -2.96711e-06 0.185844)
(-6.55065e-07 -1.51825e-06 0.0847372)
(6.43695e-07 -1.30371e-06 0.0811843)
(1.83409e-06 -2.64022e-06 0.17767)
(2.78007e-06 -3.07924e-06 0.214187)
(3.50065e-06 -3.19021e-06 0.224187)
(4.11547e-06 -3.21529e-06 0.226331)
(4.59732e-06 -3.2178e-06 0.226714)
(4.8763e-06 -3.2092e-06 0.226778)
(4.88953e-06 -3.19195e-06 0.226794)
(4.59767e-06 -3.16886e-06 0.226803)
(3.99143e-06 -3.14396e-06 0.22681)
(3.09383e-06 -3.12154e-06 0.226816)
(1.95931e-06 -3.10506e-06 0.22682)
(6.69121e-07 -3.09621e-06 0.226822)
(-6.75659e-07 -3.09437e-06 0.226822)
(-1.96568e-06 -3.09709e-06 0.22682)
(-3.09579e-06 -3.09977e-06 0.226816)
(-3.97735e-06 -3.09665e-06 0.22681)
(-4.5516e-06 -3.08187e-06 0.226803)
(-4.79941e-06 -3.05136e-06 0.226794)
(-4.74435e-06 -3.00532e-06 0.226778)
(-4.44575e-06 -2.94985e-06 0.226713)
(-3.98107e-06 -2.8953e-06 0.22633)
(-3.41576e-06 -2.8445e-06 0.224186)
(-2.74947e-06 -2.74947e-06 0.214186)
(-1.83041e-06 -2.38868e-06 0.177669)
(-6.40781e-07 -1.20965e-06 0.0811842)
(5.64903e-07 -8.56191e-07 0.0680476)
(1.59976e-06 -1.72064e-06 0.147708)
(2.41462e-06 -2.00352e-06 0.17767)
(3.0427e-06 -2.07168e-06 0.185845)
(3.58154e-06 -2.0823e-06 0.187593)
(4.00239e-06 -2.07435e-06 0.187905)
(4.24317e-06 -2.05467e-06 0.187957)
(4.25025e-06 -2.02595e-06 0.18797)
(3.99128e-06 -1.9921e-06 0.187977)
(3.45998e-06 -1.95824e-06 0.187983)
(2.67777e-06 -1.92955e-06 0.187988)
(1.69273e-06 -1.91019e-06 0.187992)
(5.75617e-07 -1.90253e-06 0.187993)
(-5.8653e-07 -1.90656e-06 0.187993)
(-1.70009e-06 -1.92045e-06 0.187992)
(-2.67545e-06 -1.94009e-06 0.187988)
(-3.43765e-06 -1.95975e-06 0.187983)
(-3.93693e-06 -1.97281e-06 0.187977)
(-4.15663e-06 -1.97349e-06 0.18797)
(-4.11537e-06 -1.9595e-06 0.187957)
(-3.86154e-06 -1.93424e-06 0.187904)
(-3.45969e-06 -1.9064e-06 0.187592)
(-2.96711e-06 -1.88164e-06 0.185844)
(-2.38868e-06 -1.83041e-06 0.177669)
(-1.59847e-06 -1.59847e-06 0.147707)
(-5.63494e-07 -8.13225e-07 0.0680474)
(2.9693e-07 -3.00883e-07 0.0324423)
(8.24598e-07 -5.95667e-07 0.0680476)
(1.22787e-06 -6.91215e-07 0.0811845)
(1.54925e-06 -7.13191e-07 0.0847375)
(1.82959e-06 -7.15178e-07 0.0854933)
(2.04608e-06 -7.09418e-07 0.0856276)
(2.16552e-06 -6.97827e-07 0.0856504)
(2.16262e-06 -6.8162e-07 0.0856562)
(2.02384e-06 -6.62836e-07 0.0856597)
(1.7485e-06 -6.44123e-07 0.0856625)
(1.34902e-06 -6.28154e-07 0.0856647)
(8.50201e-07 -6.1715e-07 0.0856663)
(2.8723e-07 -6.12517e-07 0.0856671)
(-2.97444e-07 -6.14619e-07 0.0856671)
(-8.58611e-07 -6.22918e-07 0.0856663)
(-1.3532e-06 -6.35749e-07 0.0856647)
(-1.74502e-06 -6.50464e-07 0.0856625)
(-2.00906e-06 -6.63659e-07 0.0856596)
(-2.13443e-06 -6.71972e-07 0.0856562)
(-2.12546e-06 -6.73432e-07 0.0856503)
(-2.00023e-06 -6.68739e-07 0.0856274)
(-1.78716e-06 -6.61454e-07 0.085493)
(-1.51825e-06 -6.55065e-07 0.0847372)
(-1.20965e-06 -6.40781e-07 0.0811842)
(-8.13225e-07 -5.63494e-07 0.0680474)
(-2.91017e-07 -2.91017e-07 0.0324422)
(3.05889e-07 3.05889e-07 0.0324409)
(1.07266e-06 5.94142e-07 0.0680454)
(1.91216e-06 6.83978e-07 0.0811822)
(2.61019e-06 7.02031e-07 0.0847353)
(3.17643e-06 7.05265e-07 0.0854911)
(3.57683e-06 7.07526e-07 0.0856256)
(3.76987e-06 7.10888e-07 0.0856486)
(3.73013e-06 7.15359e-07 0.0856547)
(3.45202e-06 7.20569e-07 0.0856584)
(2.94857e-06 7.25939e-07 0.0856616)
(2.2494e-06 7.30744e-07 0.0856641)
(1.39807e-06 7.34283e-07 0.0856658)
(4.48819e-07 7.36107e-07 0.0856667)
(-5.36917e-07 7.36145e-07 0.0856667)
(-1.4946e-06 7.34731e-07 0.0856658)
(-2.36091e-06 7.32608e-07 0.085664)
(-3.07806e-06 7.30695e-07 0.0856616)
(-3.59815e-06 7.29814e-07 0.0856585)
(-3.88724e-06 7.305e-07 0.0856548)
(-3.92898e-06 7.32862e-07 0.0856487)
(-3.72759e-06 7.36543e-07 0.0856258)
(-3.30951e-06 7.40595e-07 0.0854913)
(-2.71975e-06 7.41865e-07 0.0847356)
(-1.99658e-06 7.2547e-07 0.0811825)
(-1.12926e-06 6.33035e-07 0.0680457)
(-3.26524e-07 3.31517e-07 0.032441)
(5.94142e-07 1.07266e-06 0.0680454)
(2.07495e-06 2.07495e-06 0.147705)
(3.64261e-06 2.38312e-06 0.177667)
(4.8796e-06 2.45421e-06 0.185842)
(5.84955e-06 2.47404e-06 0.18759)
(6.51814e-06 2.48935e-06 0.187902)
(6.82079e-06 2.50827e-06 0.187955)
(6.7148e-06 2.53102e-06 0.187969)
(6.19116e-06 2.55606e-06 0.187976)
(5.27325e-06 2.58108e-06 0.187983)
(4.0127e-06 2.60334e-06 0.187988)
(2.48458e-06 2.62016e-06 0.187992)
(7.82055e-07 2.62952e-06 0.187994)
(-9.88991e-07 2.63044e-06 0.187994)
(-2.71641e-06 2.62325e-06 0.187992)
(-4.28882e-06 2.60963e-06 0.187988)
(-5.60259e-06 2.59217e-06 0.187983)
(-6.57002e-06 2.57383e-06 0.187977)
(-7.12714e-06 2.55735e-06 0.187969)
(-7.24124e-06 2.54475e-06 0.187955)
(-6.91743e-06 2.5368e-06 0.187903)
(-6.20132e-06 2.53192e-06 0.187591)
(-5.1674e-06 2.5202e-06 0.185843)
(-3.86229e-06 2.45337e-06 0.177668)
(-2.221e-06 2.14379e-06 0.147705)
(-6.47018e-07 1.12066e-06 0.0680457)
(6.83978e-07 1.91216e-06 0.0811822)
(2.38312e-06 3.64261e-06 0.177667)
(4.15395e-06 4.15395e-06 0.214184)
(5.52156e-06 4.27864e-06 0.224184)
(6.58345e-06 4.32219e-06 0.226328)
(7.31078e-06 4.35999e-06 0.226712)
(7.63363e-06 4.40507e-06 0.226777)
(7.50443e-06 4.45702e-06 0.226793)
(6.9128e-06 4.51231e-06 0.226803)
(5.88418e-06 4.56622e-06 0.22681)
(4.4751e-06 4.61351e-06 0.226817)
(2.76788e-06 4.64914e-06 0.226821)
(8.64846e-07 4.66906e-06 0.226823)
(-1.11713e-06 4.67092e-06 0.226823)
(-3.05363e-06 4.65458e-06 0.226821)
(-4.82029e-06 4.62217e-06 0.226817)
(-6.30057e-06 4.5778e-06 0.22681)
(-7.39515e-06 4.52689e-06 0.226803)
(-8.03107e-06 4.47531e-06 0.226793)
(-8.17079e-06 4.42846e-06 0.226777)
(-7.82006e-06 4.39013e-06 0.226712)
(-7.0311e-06 4.3602e-06 0.226329)
(-5.88775e-06 4.32427e-06 0.224185)
(-4.43549e-06 4.20566e-06 0.214185)
(-2.5739e-06 3.69708e-06 0.177668)
(-7.54172e-07 1.95153e-06 0.0811826)
(7.02031e-07 2.61019e-06 0.0847353)
(2.45421e-06 4.8796e-06 0.185842)
(4.27864e-06 5.52156e-06 0.224184)
(5.68098e-06 5.68098e-06 0.234698)
(6.76938e-06 5.74565e-06 0.236955)
(7.51589e-06 5.80631e-06 0.237359)
(7.84849e-06 5.87746e-06 0.237427)
(7.7176e-06 5.9575e-06 0.237444)
(7.11166e-06 6.04101e-06 0.237454)
(6.05591e-06 6.12118e-06 0.237463)
(4.60761e-06 6.19069e-06 0.237469)
(2.85084e-06 6.24263e-06 0.237474)
(8.90637e-07 6.27149e-06 0.237476)
(-1.15243e-06 6.27395e-06 0.237476)
(-3.14958e-06 6.24975e-06 0.237474)
(-4.97185e-06 6.20157e-06 0.237469)
(-6.49824e-06 6.1349e-06 0.237463)
(-7.6257e-06 6.05727e-06 0.237454)
(-8.2789e-06 5.97707e-06 0.237445)
(-8.41969e-06 5.90236e-06 0.237428)
(-8.05535e-06 5.83929e-06 0.23736)
(-7.24176e-06 5.78907e-06 0.236956)
(-6.0674e-06 5.73529e-06 0.234699)
(-4.57882e-06 5.58382e-06 0.224185)
(-2.66273e-06 4.94046e-06 0.185843)
(-7.80315e-07 2.64462e-06 0.0847357)
(7.05265e-07 3.17643e-06 0.0854911)
(2.47404e-06 5.84955e-06 0.18759)
(4.32219e-06 6.58345e-06 0.226328)
(5.74565e-06 6.76938e-06 0.236955)
(6.85388e-06 6.85388e-06 0.239237)
(7.61729e-06 6.93661e-06 0.239645)
(7.96176e-06 7.03221e-06 0.239714)
(7.83587e-06 7.13773e-06 0.239732)
(7.2267e-06 7.24612e-06 0.239742)
(6.15877e-06 7.3488e-06 0.23975)
(4.68952e-06 7.43684e-06 0.239757)
(2.90419e-06 7.502e-06 0.239761)
(9.09962e-07 7.53784e-06 0.239764)
(-1.1695e-06 7.54077e-06 0.239764)
(-3.20187e-06 7.51078e-06 0.239761)
(-5.05467e-06 7.45145e-06 0.239757)
(-6.6038e-06 7.36962e-06 0.23975)
(-7.74411e-06 7.27451e-06 0.239742)
(-8.39949e-06 7.17632e-06 0.239732)
(-8.53254e-06 7.08472e-06 0.239715)
(-8.15279e-06 7.00704e-06 0.239646)
(-7.31957e-06 6.9449e-06 0.239238)
(-6.12526e-06 6.87991e-06 0.236956)
(-4.61904e-06 6.70412e-06 0.22633)
(-2.68456e-06 5.95426e-06 0.187591)
(-7.85619e-07 3.21871e-06 0.0854915)
(7.07526e-07 3.57683e-06 0.0856256)
(2.48935e-06 6.51814e-06 0.187902)
(4.35999e-06 7.31078e-06 0.226712)
(5.80631e-06 7.51589e-06 0.237359)
(6.93661e-06 7.61729e-06 0.239645)
(7.71905e-06 7.71905e-06 0.240054)
(8.07714e-06 7.83512e-06 0.240124)
(7.95749e-06 7.96133e-06 0.240141)
(7.34565e-06 8.08924e-06 0.240151)
(6.26545e-06 8.209e-06 0.24016)
(4.77464e-06 8.31055e-06 0.240166)
(2.95993e-06 8.38492e-06 0.240171)
(9.31073e-07 8.4254e-06 0.240173)
(-1.18478e-06 8.42863e-06 0.240173)