/*--------------------------------*- C++ -*----------------------------------*\
  =========                 |
  \\      /  F ield         | OpenFOAM: The Open Source CFD Toolbox
   \\    /   O peration     | Website:  https://openfoam.org
    \\  /    A nd           | Version:  7
     \\/     M anipulation  |
\*---------------------------------------------------------------------------*/
FoamFile
{
    version     2.0;
    format      ascii;
    class       surfaceScalarField;
    location    "0.2";
    object      phi;
}
// * * * * * * * * * * * * * * * * * * * * * * * * * * * * * * * * * * * * * //

dimensions      [0 3 -1 0 0 0 0];

internalField   nonuniform List<scalar> 
91004
(
6.48201e-09
6.48201e-09
0.000416507
9.90185e-09
1.03022e-08
0.000670792
1.19752e-08
1.08567e-08
0.000713998
1.39141e-08
1.09258e-08
0.000719133
1.54946e-08
1.09521e-08
0.000719625
1.63843e-08
1.09829e-08
0.000719687
1.63948e-08
1.10323e-08
0.000719717
1.54615e-08
1.11059e-08
0.000719746
1.36106e-08
1.12036e-08
0.000719774
1.09336e-08
1.13191e-08
0.000719798
7.57084e-09
1.14399e-08
0.000719818
3.69676e-09
1.15499e-08
0.000719832
-4.88346e-10
1.16317e-08
0.000719839
-4.75807e-09
1.16691e-08
0.000719839
-8.87466e-09
1.16529e-08
0.000719831
-1.25867e-08
1.15806e-08
0.000719818
-1.56483e-08
1.14585e-08
0.000719798
-1.78364e-08
1.13002e-08
0.000719774
-1.89773e-08
1.11256e-08
0.000719747
-1.89815e-08
1.09576e-08
0.000719718
-1.78833e-08
1.08168e-08
0.000719688
-1.58877e-08
1.07145e-08
0.000719627
-1.33912e-08
1.06442e-08
0.000719135
-1.07333e-08
1.05572e-08
0.000714
-6.83915e-09
1.00253e-08
0.000670795
6.38851e-09
0.000416508
1.03022e-08
9.90185e-09
0.000670792
1.57513e-08
1.57513e-08
0.00109092
1.87578e-08
1.66528e-08
0.00116321
2.15315e-08
1.67749e-08
0.00117189
2.37936e-08
1.68547e-08
0.00117273
2.50274e-08
1.69758e-08
0.00117283
2.49495e-08
1.71501e-08
0.00117288
2.34655e-08
1.73774e-08
0.00117293
2.06237e-08
1.7648e-08
0.00117298
1.65579e-08
1.79409e-08
0.00117302
1.14688e-08
1.82275e-08
0.00117305
5.60273e-09
1.84727e-08
0.00117307
-7.54869e-10
1.86407e-08
0.00117308
-7.27928e-09
1.86991e-08
0.00117308
-1.3614e-08
1.86315e-08
0.00117307
-1.93755e-08
1.84346e-08
0.00117305
-2.41757e-08
1.81245e-08
0.00117302
-2.76522e-08
1.77344e-08
0.00117298
-2.95165e-08
1.73111e-08
0.00117293
-2.96128e-08
1.69072e-08
0.00117289
-2.79877e-08
1.65708e-08
0.00117284
-2.49697e-08
1.63338e-08
0.00117273
-2.12049e-08
1.61961e-08
0.0011719
-1.71941e-08
1.60686e-08
0.00116322
-1.09424e-08
1.5245e-08
0.00109092
9.69731e-09
0.000670795
1.08567e-08
1.19752e-08
0.000713998
1.66528e-08
1.87578e-08
0.00116321
1.9835e-08
1.9835e-08
0.00124075
2.27656e-08
2.00314e-08
0.00125008
2.51636e-08
2.02008e-08
0.00125098
2.64857e-08
2.04509e-08
0.00125109
2.6429e-08
2.07893e-08
0.00125115
2.48917e-08
2.12029e-08
0.0012512
2.19154e-08
2.16708e-08
0.00125124
1.7635e-08
2.21563e-08
0.00125129
1.22532e-08
2.26114e-08
0.00125132
6.02444e-09
2.29841e-08
0.00125135
-7.50772e-10
2.3223e-08
0.00125136
-7.72941e-09
2.32845e-08
0.00125136
-1.45216e-08
2.31522e-08
0.00125134
-2.07066e-08
2.28279e-08
0.00125132
-2.58561e-08
2.23426e-08
0.00125129
-2.95719e-08
2.17517e-08
0.00125124
-3.15406e-08
2.11268e-08
0.0012512
-3.15988e-08
2.05449e-08
0.00125115
-2.98085e-08
2.00731e-08
0.00125109
-2.654e-08
1.97521e-08
0.00125098
-2.25056e-08
1.95792e-08
0.00125008
-1.8248e-08
1.94329e-08
0.00124075
-1.16121e-08
1.84598e-08
0.00116322
1.18934e-08
0.000714001
1.09258e-08
1.39141e-08
0.000719133
1.67749e-08
2.15315e-08
0.00117189
2.00314e-08
2.27656e-08
0.00125008
2.30516e-08
2.30516e-08
0.00125949
2.55447e-08
2.33372e-08
0.0012604
2.69553e-08
2.37349e-08
0.00126052
2.6969e-08
2.42478e-08
0.00126057
2.54725e-08
2.48558e-08
0.00126062
2.24947e-08
2.55205e-08
0.00126067
1.81611e-08
2.61896e-08
0.00126071
1.26699e-08
2.67989e-08
0.00126075
6.27787e-09
2.72809e-08
0.00126077
-7.01176e-10
2.75743e-08
0.00126078
-7.90907e-09
2.76314e-08
0.00126078
-1.49265e-08
2.74411e-08
0.00126077
-2.13047e-08
2.70157e-08
0.00126075
-2.65892e-08
2.64033e-08
0.00126071
-3.03631e-08
2.56795e-08
0.00126067
-3.23065e-08
2.49357e-08
0.00126062
-3.22646e-08
2.42636e-08
0.00126057
-3.0323e-08
2.37366e-08
0.00126052
-2.68889e-08
2.33939e-08
0.00126041
-2.27191e-08
2.32218e-08
0.0012595
-1.8396e-08
2.30669e-08
0.00125008
-1.17347e-08
2.1927e-08
0.0011719
1.42114e-08
0.000719136
1.09521e-08
1.54946e-08
0.000719625
1.68547e-08
2.37936e-08
0.00117273
2.02008e-08
2.51636e-08
0.00125098
2.33372e-08
2.55447e-08
0.0012604
2.59507e-08
2.59507e-08
0.00126132
2.74753e-08
2.6498e-08
0.00126143
2.75807e-08
2.71811e-08
0.00126148
2.61373e-08
2.79685e-08
0.00126154
2.31604e-08
2.88094e-08
0.00126158
1.8764e-08
2.96362e-08
0.00126163
1.31432e-08
3.03715e-08
0.00126166
6.56188e-09
3.09384e-08
0.00126169
-6.47103e-10
3.12698e-08
0.0012617
-8.10684e-09
3.13219e-08
0.0012617
-1.53587e-08
3.10908e-08
0.00126169
-2.19237e-08
3.06029e-08
0.00126166
-2.7321e-08
2.99229e-08
0.00126163
-3.11183e-08
2.91426e-08
0.00126158
-3.2996e-08
2.83657e-08
0.00126154
-3.2817e-08
2.76893e-08
0.00126149
-3.06989e-08
2.71838e-08
0.00126143
-2.70907e-08
2.68778e-08
0.00126132
-2.2792e-08
2.67424e-08
0.00126041
-1.84184e-08
2.65935e-08
0.00125099
-1.17648e-08
2.52769e-08
0.00117274
1.63843e-08
0.000719628
1.09829e-08
1.63843e-08
0.000719687
1.69758e-08
2.50274e-08
0.00117283
2.04509e-08
2.64857e-08
0.00125109
2.37349e-08
2.69553e-08
0.00126052
2.6498e-08
2.74753e-08
0.00126143
2.81567e-08
2.81567e-08
0.00126154
2.83636e-08
2.89861e-08
0.0012616
2.69704e-08
2.99206e-08
0.00126165
2.39769e-08
3.08979e-08
0.0012617
1.94881e-08
3.18399e-08
0.00126174
1.36989e-08
3.26604e-08
0.00126178
6.88569e-09
3.32779e-08
0.0012618
-5.94102e-10
3.36266e-08
0.00126181
-8.33696e-09
3.36719e-08
0.00126181
-1.58417e-08
3.34185e-08
0.0012618
-2.2596e-08
3.29086e-08
0.00126178
-2.80933e-08
3.2221e-08
0.00126174
-3.18901e-08
3.14583e-08
0.0012617
-3.36742e-08
3.0729e-08
0.00126165
-3.33333e-08
3.01263e-08
0.0012616
-3.10246e-08
2.97092e-08
0.00126155
-2.72408e-08
2.94889e-08
0.00126143
-2.28184e-08
2.94182e-08
0.00126052
-1.83928e-08
2.92868e-08
0.0012511
-1.1742e-08
2.78192e-08
0.00117284
1.79867e-08
0.00071969
1.10323e-08
1.63948e-08
0.000719717
1.71501e-08
2.49495e-08
0.00117288
2.07893e-08
2.6429e-08
0.00125115
2.42478e-08
2.6969e-08
0.00126057
2.71811e-08
2.75807e-08
0.00126148
2.89861e-08
2.83636e-08
0.0012616
2.92949e-08
2.92949e-08
0.00126165
2.79416e-08
3.03239e-08
0.00126171
2.49104e-08
3.13794e-08
0.00126175
2.02999e-08
3.2377e-08
0.0012618
1.43092e-08
3.32279e-08
0.00126183
7.23249e-09
3.38519e-08
0.00126186
-5.4462e-10
3.41902e-08
0.00126187
-8.58231e-09
3.42208e-08
0.00126187
-1.63391e-08
3.39594e-08
0.00126186
-2.32685e-08
3.34627e-08
0.00126183
-2.88415e-08
3.28198e-08
0.0012618
-3.26101e-08
3.21381e-08
0.00126175
-3.42764e-08
3.15226e-08
0.00126171
-3.3761e-08
3.10546e-08
0.00126166
-3.12648e-08
3.07743e-08
0.0012616
-2.73224e-08
3.06711e-08
0.00126149
-2.27974e-08
3.06783e-08
0.00126058
-1.83282e-08
3.05685e-08
0.00125115
-1.16781e-08
2.90063e-08
0.00117289
1.86888e-08
0.00071972
1.11059e-08
1.54615e-08
0.000719746
1.73774e-08
2.34655e-08
0.00117293
2.12029e-08
2.48917e-08
0.0012512
2.48558e-08
2.54725e-08
0.00126062
2.79686e-08
2.61373e-08
0.00126154
2.99207e-08
2.69704e-08
0.00126165
3.03239e-08
2.79416e-08
0.00126171
2.89941e-08
2.89941e-08
0.00126176
2.59031e-08
3.00534e-08
0.00126181
2.11463e-08
3.10342e-08
0.00126185
1.49317e-08
3.18508e-08
0.00126188
7.57544e-09
3.24299e-08
0.00126191
-5.04979e-10
3.27246e-08
0.00126192
-8.82871e-09
3.27272e-08
0.00126192
-1.68163e-08
3.24653e-08
0.00126191
-2.38899e-08
3.20072e-08
0.00126188
-2.95039e-08
3.14481e-08
0.00126185
-3.32132e-08
3.08934e-08
0.00126181
-3.47426e-08
3.04369e-08
0.00126176
-3.40518e-08
3.01413e-08
0.00126171
-3.13875e-08
3.0023e-08
0.00126165
-2.73219e-08
3.00467e-08
0.00126154
-2.27318e-08
3.01286e-08
0.00126063
-1.82389e-08
3.00371e-08
0.0012512
-1.15897e-08
2.84616e-08
0.00117294
1.82681e-08
0.000719749
1.12036e-08
1.36106e-08
0.000719774
1.7648e-08
2.06237e-08
0.00117298
2.16708e-08
2.19154e-08
0.00125124
2.55205e-08
2.24947e-08
0.00126067
2.88094e-08
2.31604e-08
0.00126158
3.08979e-08
2.39769e-08
0.0012617
3.13794e-08
2.49104e-08
0.00126175
3.00534e-08
2.59031e-08
0.00126181
2.68823e-08
2.68823e-08
0.00126186
2.1962e-08
2.77675e-08
0.0012619
1.55142e-08
2.84817e-08
0.00126193
7.87993e-09
2.89636e-08
0.00126196
-4.89116e-10
2.91808e-08
0.00126197
-9.07034e-09
2.91403e-08
0.00126197
-1.72495e-08
2.88803e-08
0.00126196
-2.4423e-08
2.8477e-08
0.00126193
-3.00365e-08
2.80261e-08
0.0012619
-3.36555e-08
2.76237e-08
0.00126186
-3.50356e-08
2.73467e-08
0.00126181
-3.41808e-08
2.72348e-08
0.00126176
-3.13821e-08
2.72783e-08
0.0012617
-2.72425e-08
2.74182e-08
0.00126159
-2.26373e-08
2.75573e-08
0.00126067
-1.81493e-08
2.74769e-08
0.00125125
-1.15012e-08
2.59886e-08
0.00117298
1.66129e-08
0.000719775
1.13191e-08
1.09336e-08
0.000719798
1.79409e-08
1.65579e-08
0.00117302
2.21563e-08
1.7635e-08
0.00125129
2.61896e-08
1.81611e-08
0.00126071
2.96362e-08
1.8764e-08
0.00126163
3.18399e-08
1.94881e-08
0.00126174
3.2377e-08
2.02999e-08
0.0012618
3.10342e-08
2.11463e-08
0.00126185
2.77675e-08
2.1962e-08
0.0012619
2.26774e-08
2.26774e-08
0.00126194
1.60019e-08
2.32285e-08
0.00126198
8.1091e-09
2.35688e-08
0.001262
-5.14529e-10
2.36815e-08
0.00126201
-9.30756e-09
2.35872e-08
0.00126201
-1.76256e-08
2.33306e-08
0.001262
-2.48468e-08
2.29916e-08
0.00126198
-3.04162e-08
2.26595e-08
0.00126194
-3.39182e-08
2.24154e-08
0.0012619
-3.51457e-08
2.23153e-08
0.00126185
-3.41487e-08
2.23741e-08
0.0012618
-3.12598e-08
2.25566e-08
0.00126174
-2.71035e-08
2.2785e-08
0.00126163
-2.25381e-08
2.29558e-08
0.00126072
-1.8088e-08
2.28802e-08
0.00125129
-1.14394e-08
2.15858e-08
0.00117302
1.37362e-08
0.000719799
1.14399e-08
7.57084e-09
0.000719818
1.82275e-08
1.14688e-08
0.00117305
2.26114e-08
1.22532e-08
0.00125132
2.67989e-08
1.26699e-08
0.00126075
3.03715e-08
1.31432e-08
0.00126166
3.26604e-08
1.36989e-08
0.00126178
3.32279e-08
1.43092e-08
0.00126183
3.18508e-08
1.49317e-08
0.00126188
2.84817e-08
1.55142e-08
0.00126193
2.32285e-08
1.60019e-08
0.00126198
1.63469e-08
1.63469e-08
0.00126201
8.23234e-09
1.65188e-08
0.00126204
-5.95698e-10
1.65148e-08
0.00126205
-9.54188e-09
1.63665e-08
0.00126205
-1.79386e-08
1.61191e-08
0.00126204
-2.51539e-08
1.58508e-08
0.00126201
-3.06395e-08
1.56377e-08
0.00126198
-3.40063e-08
1.5542e-08
0.00126193
-3.50877e-08
1.55971e-08
0.00126189
-3.39791e-08
1.57941e-08
0.00126183
-3.1049e-08
1.60776e-08
0.00126178
-2.69326e-08
1.63583e-08
0.00126166
-2.24576e-08
1.6535e-08
0.00126075
-1.80761e-08
1.64647e-08
0.00125132
-1.14227e-08
1.54701e-08
0.00117305
9.78427e-09
0.000719818
1.15499e-08
3.69676e-09
0.000719832
1.84727e-08
5.60273e-09
0.00117307
2.29841e-08
6.02444e-09
0.00125135
2.72809e-08
6.27787e-09
0.00126077
3.09384e-08
6.56188e-09
0.00126169
3.32779e-08
6.88569e-09
0.0012618
3.38519e-08
7.23249e-09
0.00126186
3.24299e-08
7.57544e-09
0.00126191
2.89636e-08
7.87993e-09
0.00126196
2.35688e-08
8.10909e-09
0.001262
1.65188e-08
8.23234e-09
0.00126204
8.23413e-09
8.23413e-09
0.00126206
-7.3769e-10
8.12184e-09
0.00126207
-9.77052e-09
7.93281e-09
0.00126207
-1.81855e-08
7.70835e-09
0.00126206
-2.53459e-08
7.51648e-09
0.00126204
-3.07178e-08
7.41626e-09
0.001262
-3.39425e-08
7.44869e-09
0.00126196
-3.48946e-08
7.62525e-09
0.00126191
-3.37101e-08
7.91788e-09
0.00126186
-3.07862e-08
8.25906e-09
0.0012618
-2.6758e-08
8.55743e-09
0.00126169
-2.24118e-08
8.7217e-09
0.00126077
-1.81209e-08
8.66756e-09
0.00125134
-1.1457e-08
8.06733e-09
0.00117307
5.03423e-09
0.000719831
1.16317e-08
-4.88347e-10
0.000719839
1.86407e-08
-7.54871e-10
0.00117308
2.3223e-08
-7.50773e-10
0.00125136
2.75743e-08
-7.01178e-10
0.00126078
3.12698e-08
-6.47105e-10
0.0012617
3.36266e-08
-5.94103e-10
0.00126181
3.41902e-08
-5.44622e-10
0.00126187
3.27246e-08
-5.04981e-10
0.00126192
2.91808e-08
-4.89117e-10
0.00126197
2.36815e-08
-5.1453e-10
0.00126201
1.65148e-08
-5.957e-10
0.00126205
8.12184e-09
-7.37692e-10
0.00126207
-9.27421e-10
-9.27423e-10
0.00126209
-9.98266e-09
-1.12527e-09
0.00126209
-1.8362e-08
-1.30617e-09
0.00126207
-2.54303e-08
-1.41677e-09
0.00126205
-3.06723e-08
-1.41445e-09
0.00126201
-3.3761e-08
-1.28002e-09
0.00126197
-3.46086e-08
-1.0208e-09
0.00126192
-3.33849e-08
-6.7536e-10
0.00126187
-3.05065e-08
-3.13041e-10
0.00126181
-2.66001e-08
-1.78169e-11
0.0012617
-2.24026e-08
1.27577e-10
0.00126078
-1.82133e-08
1.11608e-10
0.00125136
-1.15351e-08
-2.30251e-11
0.00117308
-1.30459e-10
0.000719838
1.16691e-08
-4.75808e-09
0.000719839
1.86991e-08
-7.27928e-09
0.00117308
2.32845e-08
-7.72941e-09
0.00125136
2.76314e-08
-7.90907e-09
0.00126078
3.13219e-08
-8.10684e-09
0.0012617
3.36719e-08
-8.33696e-09
0.00126181
3.42208e-08
-8.58232e-09
0.00126187
3.27272e-08
-8.82872e-09
0.00126192
2.91403e-08
-9.07034e-09
0.00126197
2.35872e-08
-9.30756e-09
0.00126201
1.63665e-08
-9.54188e-09
0.00126205
7.93282e-09
-9.77052e-09
0.00126207
-1.12527e-09
-9.98266e-09
0.00126209
-1.01536e-08
-1.01536e-08
0.00126209
-1.84589e-08
-1.02621e-08
0.00126207
-2.54186e-08
-1.02786e-08
0.00126205
-3.05344e-08
-1.01842e-08
0.00126201
-3.35068e-08
-9.97571e-09
0.00126197
-3.42791e-08
-9.67051e-09
0.00126192
-3.30474e-08
-9.31051e-09
0.00126187
-3.02383e-08
-8.95698e-09
0.00126181
-2.64595e-08
-8.67845e-09
0.0012617
-2.24112e-08
-8.52679e-09
0.00126078
-1.83238e-08
-8.46908e-09
0.00125136
-1.16366e-08
-8.09693e-09
0.00117308
-5.25876e-09
0.000719838
1.16529e-08
-8.87466e-09
0.000719831
1.86315e-08
-1.3614e-08
0.00117307
2.31522e-08
-1.45216e-08
0.00125134
2.74411e-08
-1.49265e-08
0.00126077
3.10908e-08
-1.53587e-08
0.00126169
3.34185e-08
-1.58417e-08
0.0012618
3.39594e-08
-1.63391e-08
0.00126186
3.24653e-08
-1.68163e-08
0.00126191
2.88803e-08
-1.72495e-08
0.00126196
2.33306e-08
-1.76256e-08
0.001262
1.61191e-08
-1.79386e-08
0.00126204
7.70835e-09
-1.81855e-08
0.00126206
-1.30616e-09
-1.8362e-08
0.00126207
-1.02621e-08
-1.84589e-08
0.00126207
-1.84712e-08
-1.84712e-08
0.00126206
-2.53184e-08
-1.83907e-08
0.00126204
-3.03223e-08
-1.82169e-08
0.001262
-3.3205e-08
-1.7958e-08
0.00126196
-3.39314e-08
-1.76335e-08
0.00126191
-3.2714e-08
-1.72771e-08
0.00126186
-2.9982e-08
-1.69339e-08
0.0012618
-2.63267e-08
-1.66529e-08
0.00126169
-2.24089e-08
-1.64653e-08
0.00126077
-1.84191e-08
-1.62961e-08
0.00125134
-1.17428e-08
-1.54228e-08
0.00117307
-9.90124e-09
0.000719831
1.15806e-08
-1.25867e-08
0.000719818
1.84346e-08
-1.93756e-08
0.00117305
2.28279e-08
-2.07066e-08
0.00125132
2.70157e-08
-2.13047e-08
0.00126075
3.06029e-08
-2.19237e-08
0.00126166
3.29086e-08
-2.25961e-08
0.00126178
3.34627e-08
-2.32685e-08
0.00126183
3.20072e-08
-2.38899e-08
0.00126188
2.8477e-08
-2.4423e-08
0.00126193
2.29916e-08
-2.48468e-08
0.00126198
1.58508e-08
-2.51539e-08
0.00126201
7.51648e-09
-2.53459e-08
0.00126204
-1.41677e-09
-2.54303e-08
0.00126205
-1.02786e-08
-2.54186e-08
0.00126205
-1.83907e-08
-2.53184e-08
0.00126204
-2.51426e-08
-2.51426e-08
0.00126201
-3.0063e-08
-2.49027e-08
0.00126198
-3.28865e-08
-2.46102e-08
0.00126194
-3.35896e-08
-2.42777e-08
0.00126189
-3.23931e-08
-2.39228e-08
0.00126183
-2.97257e-08
-2.35706e-08
0.00126178
-2.61655e-08
-2.32516e-08
0.00126166
-2.23515e-08
-2.2985e-08
0.00126075
-1.84582e-08
-2.26718e-08
0.00125132
-1.18306e-08
-2.13531e-08
0.00117305
-1.3665e-08
0.000719818
1.14585e-08
-1.56483e-08
0.000719798
1.81245e-08
-2.41757e-08
0.00117302
2.23426e-08
-2.58561e-08
0.00125129
2.64033e-08
-2.65892e-08
0.00126071
2.99229e-08
-2.7321e-08
0.00126163
3.22211e-08
-2.80933e-08
0.00126174
3.28198e-08
-2.88415e-08
0.0012618
3.14481e-08
-2.95039e-08
0.00126185
2.80261e-08
-3.00365e-08
0.0012619
2.26595e-08
-3.04162e-08
0.00126194
1.56377e-08
-3.06395e-08
0.00126198
7.41626e-09
-3.07178e-08
0.001262
-1.41444e-09
-3.06723e-08
0.00126201
-1.01842e-08
-3.05344e-08
0.00126201
-1.82169e-08
-3.03223e-08
0.001262
-2.49027e-08
-3.0063e-08
0.00126198
-2.9772e-08
-2.9772e-08
0.00126194
-3.25617e-08
-2.94552e-08
0.0012619
-3.32513e-08
-2.91112e-08
0.00126185
-3.20654e-08
-2.87377e-08
0.0012618
-2.94334e-08
-2.8341e-08
0.00126174
-2.59304e-08
-2.79395e-08
0.00126163
-2.21933e-08
-2.75512e-08
0.00126071
-1.84056e-08
-2.7076e-08
0.00125129
-1.18775e-08
-2.54171e-08
0.00117302
-1.62726e-08
0.000719799
1.13002e-08
-1.78364e-08
0.000719774
1.77344e-08
-2.76522e-08
0.00117298
2.17517e-08
-2.95719e-08
0.00125124
2.56795e-08
-3.03631e-08
0.00126067
2.91426e-08
-3.11183e-08
0.00126158
3.14583e-08
-3.18901e-08
0.0012617
3.21381e-08
-3.26101e-08
0.00126175
3.08934e-08
-3.32132e-08
0.00126181
2.76237e-08
-3.36555e-08
0.00126186
2.24154e-08
-3.39182e-08
0.0012619
1.5542e-08
-3.40063e-08
0.00126193
7.44869e-09
-3.39425e-08
0.00126196
-1.28002e-09
-3.3761e-08
0.00126197
-9.97571e-09
-3.35068e-08
0.00126197
-1.7958e-08
-3.3205e-08
0.00126196
-2.46102e-08
-3.28865e-08
0.00126194
-2.94552e-08
-3.25617e-08
0.0012619
-3.22238e-08
-3.22238e-08
0.00126186
-3.28935e-08
-3.18538e-08
0.00126181
-3.16923e-08
-3.14312e-08
0.00126176
-2.90576e-08
-3.09501e-08
0.0012617
-2.55748e-08
-3.04269e-08
0.00126159
-2.18967e-08
-2.98917e-08
0.00126067
-1.82324e-08
-2.92636e-08
0.00125125
-1.18587e-08
-2.74103e-08
0.00117298
-1.76067e-08
0.000719775
1.11256e-08
-1.89773e-08
0.000719747
1.73111e-08
-2.95165e-08
0.00117293
2.11268e-08
-3.15406e-08
0.0012512
2.49357e-08
-3.23065e-08
0.00126062
2.83657e-08
-3.2996e-08
0.00126154
3.0729e-08
-3.36742e-08
0.00126165
3.15226e-08
-3.42764e-08
0.00126171
3.04369e-08
-3.47426e-08
0.00126176
2.73467e-08
-3.50356e-08
0.00126181
2.23153e-08
-3.51457e-08
0.00126185
1.55971e-08
-3.50877e-08
0.00126189
7.62525e-09
-3.48946e-08
0.00126191
-1.0208e-09
-3.46086e-08
0.00126192
-9.67051e-09
-3.42791e-08
0.00126192
-1.76335e-08
-3.39314e-08
0.00126191
-2.42777e-08
-3.35896e-08
0.00126189
-2.91112e-08
-3.32513e-08
0.00126185
-3.18538e-08
-3.28935e-08
0.00126181
-3.24811e-08
-3.24811e-08
0.00126176
-3.12294e-08
-3.19821e-08
0.00126171
-2.85547e-08
-3.13893e-08
0.00126165
-2.50666e-08
-3.07301e-08
0.00126154
-2.14452e-08
-3.00583e-08
0.00126063
-1.79269e-08
-2.93233e-08
0.0012512
-1.17556e-08
-2.74404e-08
0.00117294
-1.77269e-08
0.000719749
1.09576e-08
-1.89815e-08
0.000719718
1.69072e-08
-2.96128e-08
0.00117289
2.05449e-08
-3.15988e-08
0.00125115
2.42636e-08
-3.22646e-08
0.00126057
2.76893e-08
-3.2817e-08
0.00126149
3.01264e-08
-3.33333e-08
0.0012616
3.10546e-08
-3.3761e-08
0.00126166
3.01413e-08
-3.40518e-08
0.00126171
2.72348e-08
-3.41808e-08
0.00126176
2.23741e-08
-3.41487e-08
0.0012618
1.57941e-08
-3.39791e-08
0.00126183
7.91788e-09
-3.37101e-08
0.00126186
-6.75359e-10
-3.33849e-08
0.00126187
-9.3105e-09
-3.30474e-08
0.00126187
-1.72771e-08
-3.2714e-08
0.00126186
-2.39228e-08
-3.23931e-08
0.00126183
-2.87377e-08
-3.20654e-08
0.0012618
-3.14312e-08
-3.16923e-08
0.00126176
-3.19821e-08
-3.12294e-08
0.00126171
-3.06449e-08
-3.06449e-08
0.00126166
-2.79064e-08
-2.99432e-08
0.0012616
-2.44107e-08
-2.91751e-08
0.00126149
-2.0865e-08
-2.84241e-08
0.00126058
-1.75138e-08
-2.76692e-08
0.00125115
-1.15723e-08
-2.59169e-08
0.00117289
-1.68587e-08
0.00071972
1.08168e-08
-1.78833e-08
0.000719688
1.65708e-08
-2.79877e-08
0.00117284
2.00731e-08
-2.98085e-08
0.00125109
2.37367e-08
-3.0323e-08
0.00126052
2.71838e-08
-3.06989e-08
0.00126143
2.97092e-08
-3.10246e-08
0.00126155
3.07743e-08
-3.12648e-08
0.0012616
3.0023e-08
-3.13875e-08
0.00126165
2.72783e-08
-3.13821e-08
0.0012617
2.25566e-08
-3.12598e-08
0.00126174
1.60776e-08
-3.1049e-08
0.00126178
8.25906e-09
-3.07862e-08
0.0012618
-3.13039e-10
-3.05065e-08
0.00126181
-8.95698e-09
-3.02383e-08
0.00126181
-1.69339e-08
-2.9982e-08
0.0012618
-2.35706e-08
-2.97257e-08
0.00126178
-2.8341e-08
-2.94334e-08
0.00126174
-3.09501e-08
-2.90576e-08
0.0012617
-3.13893e-08
-2.85547e-08
0.00126165
-2.99432e-08
-2.79064e-08
0.0012616
-2.7141e-08
-2.7141e-08
0.00126155
-2.36636e-08
-2.63385e-08
0.00126143
-2.02325e-08
-2.56082e-08
0.00126052
-1.70651e-08
-2.4948e-08
0.0012511
-1.13502e-08
-2.34515e-08
0.00117284
-1.5339e-08
0.000719689
1.07145e-08
-1.58877e-08
0.000719627
1.63338e-08
-2.49697e-08
0.00117273
1.97521e-08
-2.654e-08
0.00125098
2.33939e-08
-2.68889e-08
0.00126041
2.68778e-08
-2.70907e-08
0.00126132
2.94889e-08
-2.72408e-08
0.00126143
3.06711e-08
-2.73224e-08
0.00126149
3.00467e-08
-2.73219e-08
0.00126154
2.74182e-08
-2.72425e-08
0.00126159
2.2785e-08
-2.71035e-08
0.00126163
1.63583e-08
-2.69326e-08
0.00126166
8.55743e-09
-2.6758e-08
0.00126169
-1.78154e-11
-2.66001e-08
0.0012617
-8.67844e-09
-2.64595e-08
0.0012617
-1.66529e-08
-2.63267e-08
0.00126169
-2.32516e-08
-2.61655e-08
0.00126166
-2.79395e-08
-2.59304e-08
0.00126163
-3.04269e-08
-2.55748e-08
0.00126159
-3.07301e-08
-2.50666e-08
0.00126154
-2.91751e-08
-2.44107e-08
0.00126149
-2.63385e-08
-2.36636e-08
0.00126143
-2.29297e-08
-2.29297e-08
0.00126132
-1.96625e-08
-2.23322e-08
0.00126041
-1.67046e-08
-2.18729e-08
0.00125098
-1.11642e-08
-2.07019e-08
0.00117273
-1.35397e-08
0.000719627
1.06442e-08
-1.33912e-08
0.000719135
1.61961e-08
-2.12049e-08
0.0011719
1.95792e-08
-2.25056e-08
0.00125008
2.32218e-08
-2.27191e-08
0.0012595
2.67424e-08
-2.2792e-08
0.00126041
2.94182e-08
-2.28184e-08
0.00126052
3.06783e-08
-2.27974e-08
0.00126058
3.01286e-08
-2.27318e-08
0.00126063
2.75573e-08
-2.26373e-08
0.00126067
2.29558e-08
-2.25381e-08
0.00126072
1.6535e-08
-2.24576e-08
0.00126075
8.7217e-09
-2.24118e-08
0.00126077
1.27578e-10
-2.24026e-08
0.00126078
-8.52679e-09
-2.24112e-08
0.00126078
-1.64653e-08
-2.24089e-08
0.00126077
-2.2985e-08
-2.23515e-08
0.00126075
-2.75512e-08
-2.21933e-08
0.00126071
-2.98917e-08
-2.18967e-08
0.00126067
-3.00583e-08
-2.14452e-08
0.00126063
-2.84241e-08
-2.0865e-08
0.00126058
-2.56082e-08
-2.02325e-08
0.00126052
-2.23322e-08
-1.96625e-08
0.00126041
-1.9281e-08
-1.9281e-08
0.00125949
-1.65363e-08
-1.90823e-08
0.00125008
-1.10986e-08
-1.82243e-08
0.00117189
-1.18002e-08
0.000719134
1.05572e-08
-1.07333e-08
0.000714
1.60686e-08
-1.71941e-08
0.00116322
1.94329e-08
-1.8248e-08
0.00124075
2.30669e-08
-1.8396e-08
0.00125008
2.65935e-08
-1.84184e-08
0.00125099
2.92868e-08
-1.83928e-08
0.0012511
3.05685e-08
-1.83282e-08
0.00125115
3.00371e-08
-1.82389e-08
0.0012512
2.74769e-08
-1.81493e-08
0.00125125
2.28802e-08
-1.8088e-08
0.00125129
1.64647e-08
-1.80761e-08
0.00125132
8.66756e-09
-1.81209e-08
0.00125134
1.1161e-10
-1.82133e-08
0.00125136
-8.46908e-09
-1.83238e-08
0.00125136
-1.62961e-08
-1.84191e-08
0.00125134
-2.26718e-08
-1.84582e-08
0.00125132
-2.7076e-08
-1.84056e-08
0.00125129
-2.92636e-08
-1.82324e-08
0.00125125
-2.93233e-08
-1.79269e-08
0.0012512
-2.76692e-08
-1.75139e-08
0.00125115
-2.4948e-08
-1.70651e-08
0.0012511
-2.18729e-08
-1.67046e-08
0.00125098
-1.90823e-08
-1.65363e-08
0.00125008
-1.65431e-08
-1.65431e-08
0.00124075
-1.11612e-08
-1.59279e-08
0.00116322
-1.01491e-08
0.000713999
1.00253e-08
-6.83915e-09
0.000670795
1.5245e-08
-1.09424e-08
0.00109092
1.84598e-08
-1.16121e-08
0.00116322
2.1927e-08
-1.17347e-08
0.0011719
2.52769e-08
-1.17648e-08
0.00117274
2.78192e-08
-1.1742e-08
0.00117284
2.90063e-08
-1.16781e-08
0.00117289
2.84616e-08
-1.15897e-08
0.00117294
2.59886e-08
-1.15012e-08
0.00117298
2.15858e-08
-1.14394e-08
0.00117302
1.54701e-08
-1.14227e-08
0.00117305
8.06733e-09
-1.1457e-08
0.00117307
-2.30236e-11
-1.15351e-08
0.00117308
-8.09693e-09
-1.16366e-08
0.00117308
-1.54228e-08
-1.17428e-08
0.00117307
-2.13531e-08
-1.18306e-08
0.00117305
-2.54171e-08
-1.18775e-08
0.00117302
-2.74103e-08
-1.18587e-08
0.00117298
-2.74404e-08
-1.17556e-08
0.00117294
-2.59169e-08
-1.15723e-08
0.00117289
-2.34515e-08
-1.13502e-08
0.00117284
-2.07019e-08
-1.11642e-08
0.00117273
-1.82243e-08
-1.10986e-08
0.00117189
-1.59279e-08
-1.11612e-08
0.00116322
-1.08205e-08
-1.08205e-08
0.00109092
-6.9114e-09
0.000670794
6.38851e-09
0.000416508
9.69731e-09
0.000670795
1.18934e-08
0.000714001
1.42114e-08
0.000719136
1.63843e-08
0.000719628
1.79867e-08
0.00071969
1.86888e-08
0.00071972
1.82681e-08
0.000719749
1.66129e-08
0.000719775
1.37362e-08
0.000719799
9.78427e-09
0.000719818
5.03423e-09
0.000719831
-1.30458e-10
0.000719838
-5.25876e-09
0.000719838
-9.90124e-09
0.000719831
-1.3665e-08
0.000719818
-1.62726e-08
0.000719799
-1.76067e-08
0.000719775
-1.77269e-08
0.000719749
-1.68587e-08
0.00071972
-1.5339e-08
0.000719689
-1.35397e-08
0.000719627
-1.18002e-08
0.000719134
-1.01491e-08
0.000713999
-6.9114e-09
0.000670794
0.000416507
1.02398e-08
1.02398e-08
0.000416486
1.86229e-08
1.65847e-08
0.000670768
2.5553e-08
1.75124e-08
0.000713973
3.1613e-08
1.76343e-08
0.000719109
3.62899e-08
1.77164e-08
0.000719602
3.90216e-08
1.78328e-08
0.000719666
3.9471e-08
1.79867e-08
0.000719699
3.75208e-08
1.81694e-08
0.00071973
3.32452e-08
1.83668e-08
0.00071976
2.68807e-08
1.85606e-08
0.000719786
1.88033e-08
1.87291e-08
0.000719807
9.49872e-09
1.88543e-08
0.000719822
-4.66727e-10
1.89258e-08
0.00071983
-1.04965e-08
1.89376e-08
0.00071983
-1.99578e-08
1.88894e-08
0.000719822
-2.8258e-08
1.87892e-08
0.000719807
-3.48666e-08
1.86516e-08
0.000719786
-3.93527e-08
1.84941e-08
0.00071976
-4.14242e-08
1.83333e-08
0.00071973
-4.09659e-08
1.81849e-08
0.000719699
-3.80775e-08
1.8062e-08
0.000719667
-3.31136e-08
1.79727e-08
0.000719604
-2.66869e-08
1.79106e-08
0.000719111
-1.93861e-08
1.77998e-08
0.000713975
-1.06856e-08
1.68868e-08
0.000670769
1.05159e-08
0.000416486
1.65847e-08
1.86229e-08
0.000670768
2.9775e-08
2.9775e-08
0.00109089
4.01501e-08
3.15126e-08
0.00116319
4.9114e-08
3.17633e-08
0.00117187
5.59826e-08
3.19314e-08
0.00117271
5.99068e-08
3.21683e-08
0.00117281
6.03855e-08
3.24734e-08
0.00117287
5.72569e-08
3.28294e-08
0.00117292
5.06438e-08
3.32092e-08
0.00117297
4.09061e-08
3.35812e-08
0.00117301
2.86025e-08
3.39098e-08
0.00117304
1.44491e-08
3.41602e-08
0.00117307
-7.17436e-10
3.43038e-08
0.00117308
-1.60068e-08
3.43227e-08
0.00117308
-3.04739e-08
3.42127e-08
0.00117307
-4.322e-08
3.39871e-08
0.00117304
-5.34297e-08
3.36701e-08
0.00117301
-6.04333e-08
3.32941e-08
0.00117297
-6.37705e-08
3.28976e-08
0.00117292
-6.32532e-08
3.25207e-08
0.00117287
-5.90279e-08
3.21996e-08
0.00117282
-5.16431e-08
3.19599e-08
0.00117271
-4.20574e-08
3.17985e-08
0.00117187
-3.10889e-08
3.15617e-08
0.00116319
-1.73868e-08
2.98782e-08
0.0010909
1.88234e-08
0.000670769
1.75124e-08
2.5553e-08
0.000713973
3.15126e-08
4.01501e-08
0.00116319
4.24867e-08
4.24867e-08
0.00124072
5.195e-08
4.28911e-08
0.00125006
5.91991e-08
4.31847e-08
0.00125096
6.33393e-08
4.35681e-08
0.00125108
6.38432e-08
4.40427e-08
0.00125113
6.05399e-08
4.45803e-08
0.00125119
5.35574e-08
4.5143e-08
0.00125124
4.32726e-08
4.5686e-08
0.00125129
3.02707e-08
4.61601e-08
0.00125132
1.53045e-08
4.6518e-08
0.00125135
-7.4386e-10
4.67201e-08
0.00125136
-1.6937e-08
4.67404e-08
0.00125136
-3.22697e-08
4.65724e-08
0.00125135
-4.57845e-08
4.6232e-08
0.00125132
-5.66109e-08
4.57529e-08
0.00125129
-6.40338e-08
4.5184e-08
0.00125124
-6.75638e-08
4.45838e-08
0.00125119
-6.70043e-08
4.40126e-08
0.00125114
-6.2517e-08
4.35231e-08
0.00125108
-5.46941e-08
4.31502e-08
0.00125096
-4.45643e-08
4.28879e-08
0.00125006
-3.29887e-08
4.2522e-08
0.00124073
-1.84558e-08
4.02602e-08
0.00116319
2.57547e-08
0.000713975
1.76343e-08
3.1613e-08
0.000719109
3.17633e-08
4.9114e-08
0.00117187
4.28911e-08
5.195e-08
0.00125006
5.2513e-08
5.2513e-08
0.00125947
5.99008e-08
5.29455e-08
0.00126039
6.41444e-08
5.34868e-08
0.0012605
6.47044e-08
5.41343e-08
0.00126056
6.14016e-08
5.48523e-08
0.00126061
5.43587e-08
5.55918e-08
0.00126067
4.39512e-08
5.62952e-08
0.00126071
3.07684e-08
5.69008e-08
0.00126075
1.55735e-08
5.73511e-08
0.00126078
-7.3359e-10
5.75992e-08
0.00126079
-1.71954e-08
5.76159e-08
0.00126079
-3.27815e-08
5.73972e-08
0.00126078
-4.651e-08
5.69643e-08
0.00126075
-5.74899e-08
5.63617e-08
0.00126071
-6.49918e-08
5.56525e-08
0.00126067
-6.85215e-08
5.491e-08
0.00126062
-6.78875e-08
5.42071e-08
0.00126056
-6.32679e-08
5.36049e-08
0.0012605
-5.52811e-08
5.31407e-08
0.00126039
-4.49913e-08
5.28028e-08
0.00125948
-3.32959e-08
5.23275e-08
0.00125006
-1.86565e-08
4.95564e-08
0.00117187
3.19641e-08
0.000719111
1.77164e-08
3.62899e-08
0.000719602
3.19314e-08
5.59826e-08
0.00117271
4.31847e-08
5.91991e-08
0.00125096
5.29455e-08
5.99008e-08
0.00126039
6.04653e-08
6.04653e-08
0.0012613
6.48156e-08
6.11531e-08
0.00126142
6.54432e-08
6.19582e-08
0.00126148
6.21577e-08
6.28364e-08
0.00126153
5.50741e-08
6.37285e-08
0.00126158
4.45647e-08
6.4566e-08
0.00126163
3.12223e-08
6.52781e-08
0.00126167
1.58212e-08
6.58002e-08
0.00126169
-7.20695e-10
6.60811e-08
0.00126171
-1.74223e-08
6.60936e-08
0.00126171
-3.32281e-08
6.58388e-08
0.00126169
-4.71322e-08
6.53453e-08
0.00126167
-5.82243e-08
6.46683e-08
0.00126163
-6.5765e-08
6.38816e-08
0.00126158
-6.92603e-08
6.30676e-08
0.00126153
-6.85306e-08
6.23048e-08
0.00126148
-6.3775e-08
6.16551e-08
0.00126142
-5.56397e-08
6.11528e-08
0.0012613
-4.52208e-08
6.07789e-08
0.00126039
-3.34444e-08
6.02299e-08
0.00125097
-1.87582e-08
5.70443e-08
0.00117271
3.69277e-08
0.000719605
1.78328e-08
3.90216e-08
0.000719666
3.21683e-08
5.99068e-08
0.00117281
4.35681e-08
6.33393e-08
0.00125108
5.34868e-08
6.41444e-08
0.0012605
6.11531e-08
6.48156e-08
0.00126142
6.56201e-08
6.56201e-08
0.00126153
6.63183e-08
6.65468e-08
0.00126159
6.30442e-08
6.7544e-08
0.00126165
5.59045e-08
6.85445e-08
0.0012617
4.52697e-08
6.94725e-08
0.00126175
3.17384e-08
7.02518e-08
0.00126178
1.60993e-08
7.08149e-08
0.00126181
-7.08404e-10
7.11108e-08
0.00126182
-1.76753e-08
7.11182e-08
0.00126182
-3.37186e-08
7.08443e-08
0.00126181
-4.78059e-08
7.03261e-08
0.00126178
-5.90085e-08
6.96271e-08
0.00126175
-6.65788e-08
6.88275e-08
0.0012617
-7.00273e-08
6.80132e-08
0.00126165
-6.91895e-08
6.72609e-08
0.0012616
-6.42898e-08
6.6627e-08
0.00126154
-5.60022e-08
6.61381e-08
0.00126142
-4.54486e-08
6.5767e-08
0.00126051
-3.35732e-08
6.51831e-08
0.00125108
-1.882e-08
6.17307e-08
0.00117282
4.00208e-08
0.000719668
1.79867e-08
3.9471e-08
0.000719699
3.24734e-08
6.03855e-08
0.00117287
4.40427e-08
6.38432e-08
0.00125113
5.41343e-08
6.47044e-08
0.00126056
6.19582e-08
6.54432e-08
0.00126148
6.65468e-08
6.63183e-08
0.00126159
6.73129e-08
6.73128e-08
0.00126165
6.40398e-08
6.83704e-08