/*--------------------------------*- C++ -*----------------------------------*\
  =========                 |
  \\      /  F ield         | OpenFOAM: The Open Source CFD Toolbox
   \\    /   O peration     | Website:  https://openfoam.org
    \\  /    A nd           | Version:  7
     \\/     M anipulation  |
\*---------------------------------------------------------------------------*/
FoamFile
{
    version     2.0;
    format      ascii;
    class       volVectorField;
    location    "0.2";
    object      U;
}
// * * * * * * * * * * * * * * * * * * * * * * * * * * * * * * * * * * * * * //

dimensions      [0 1 -1 0 0 0 0];

internalField   nonuniform List<vector> 
31632
(
(6.62014e-07 6.62014e-07 0.0740474)
(1.45104e-06 1.06915e-06 0.119254)
(1.7506e-06 1.13121e-06 0.126934)
(2.07278e-06 1.13855e-06 0.127847)
(2.36956e-06 1.14005e-06 0.127935)
(2.57495e-06 1.14096e-06 0.127945)
(2.6499e-06 1.14281e-06 0.127951)
(2.57579e-06 1.14638e-06 0.127956)
(2.35076e-06 1.152e-06 0.12796)
(1.98507e-06 1.15937e-06 0.127965)
(1.49771e-06 1.16777e-06 0.127968)
(9.14088e-07 1.17592e-06 0.12797)
(2.63846e-07 1.18234e-06 0.127972)
(-4.18717e-07 1.18579e-06 0.127972)
(-1.09643e-06 1.18542e-06 0.12797)
(-1.73047e-06 1.18117e-06 0.127968)
(-2.28039e-06 1.17341e-06 0.127964)
(-2.70782e-06 1.16288e-06 0.12796)
(-2.97988e-06 1.15086e-06 0.127955)
(-3.07404e-06 1.13888e-06 0.127951)
(-2.98417e-06 1.12838e-06 0.127945)
(-2.72717e-06 1.12012e-06 0.127934)
(-2.34862e-06 1.11345e-06 0.127847)
(-1.93157e-06 1.10325e-06 0.126934)
(-1.53495e-06 1.04242e-06 0.119253)
(-6.82953e-07 6.51117e-07 0.0740473)
(1.06915e-06 1.45104e-06 0.119254)
(2.31873e-06 2.31873e-06 0.193942)
(2.7606e-06 2.44954e-06 0.206794)
(3.22374e-06 2.46514e-06 0.208336)
(3.65105e-06 2.47163e-06 0.208485)
(3.94287e-06 2.48092e-06 0.208503)
(4.03964e-06 2.49559e-06 0.208512)
(3.91409e-06 2.51636e-06 0.20852)
(3.56463e-06 2.54285e-06 0.208528)
(3.00709e-06 2.57325e-06 0.208535)
(2.26905e-06 2.60443e-06 0.20854)
(1.38624e-06 2.63245e-06 0.208544)
(4.0039e-07 2.65297e-06 0.208546)
(-6.39459e-07 2.66189e-06 0.208546)
(-1.67878e-06 2.65685e-06 0.208544)
(-2.659e-06 2.63705e-06 0.20854)
(-3.51727e-06 2.60384e-06 0.208534)
(-4.19203e-06 2.56058e-06 0.208528)
(-4.62913e-06 2.51241e-06 0.20852)
(-4.7904e-06 2.46541e-06 0.208512)
(-4.66416e-06 2.42539e-06 0.208503)
(-4.27664e-06 2.39622e-06 0.208485)
(-3.70139e-06 2.37771e-06 0.208336)
(-3.0709e-06 2.35808e-06 0.206794)
(-2.46719e-06 2.23602e-06 0.193942)
(-1.1102e-06 1.41548e-06 0.119254)
(1.13121e-06 1.7506e-06 0.126934)
(2.44954e-06 2.7606e-06 0.206794)
(2.91739e-06 2.91739e-06 0.220576)
(3.40802e-06 2.94169e-06 0.222235)
(3.86055e-06 2.96069e-06 0.222396)
(4.17119e-06 2.9895e-06 0.222415)
(4.27722e-06 3.02972e-06 0.222425)
(4.14934e-06 3.08067e-06 0.222433)
(3.78509e-06 3.13963e-06 0.222442)
(3.19977e-06 3.20216e-06 0.222449)
(2.42109e-06 3.26199e-06 0.222455)
(1.4857e-06 3.31205e-06 0.222459)
(4.36541e-07 3.34529e-06 0.222461)
(-6.74224e-07 3.35522e-06 0.222461)
(-1.78773e-06 3.33898e-06 0.222459)
(-2.84016e-06 3.29614e-06 0.222455)
(-3.762e-06 3.23035e-06 0.222449)
(-4.48533e-06 3.14889e-06 0.222441)
(-4.95083e-06 3.06156e-06 0.222433)
(-5.1174e-06 2.97907e-06 0.222425)
(-4.97375e-06 2.91108e-06 0.222415)
(-4.5506e-06 2.86383e-06 0.222396)
(-3.92968e-06 2.83744e-06 0.222235)
(-3.25479e-06 2.81539e-06 0.220577)
(-2.61918e-06 2.67468e-06 0.206794)
(-1.18358e-06 1.71609e-06 0.126934)
(1.13855e-06 2.07278e-06 0.127847)
(2.46514e-06 3.22374e-06 0.208336)
(2.94169e-06 3.40802e-06 0.222235)
(3.44574e-06 3.44573e-06 0.223909)
(3.91374e-06 3.48134e-06 0.224071)
(4.23942e-06 3.53252e-06 0.224091)
(4.35873e-06 3.60005e-06 0.2241)
(4.24041e-06 3.68171e-06 0.224109)
(3.87983e-06 3.77261e-06 0.224117)
(3.29058e-06 3.86552e-06 0.224125)
(2.4991e-06 3.95143e-06 0.224131)
(1.54178e-06 4.02051e-06 0.224135)
(4.62325e-07 4.0635e-06 0.224137)
(-6.84247e-07 4.07279e-06 0.224137)
(-1.83514e-06 4.04599e-06 0.224135)
(-2.92238e-06 3.98415e-06 0.22413)
(-3.87164e-06 3.89363e-06 0.224124)
(-4.61115e-06 3.78509e-06 0.224117)
(-5.07938e-06 3.67188e-06 0.224109)
(-5.23524e-06 3.5678e-06 0.2241)
(-5.07004e-06 3.48441e-06 0.224091)
(-4.61959e-06 3.42846e-06 0.224071)
(-3.9723e-06 3.39898e-06 0.223909)
(-3.27949e-06 3.37421e-06 0.222236)
(-2.64224e-06 3.20725e-06 0.208336)
(-1.19785e-06 2.07656e-06 0.127847)
(1.14005e-06 2.36956e-06 0.127935)
(2.47163e-06 3.65105e-06 0.208485)
(2.96069e-06 3.86055e-06 0.222396)
(3.48134e-06 3.91374e-06 0.224071)
(3.96871e-06 3.96871e-06 0.224233)
(4.31389e-06 4.04427e-06 0.224253)
(4.45031e-06 4.14034e-06 0.224262)
(4.34436e-06 4.25267e-06 0.224271)
(3.98882e-06 4.37423e-06 0.22428)
(3.39505e-06 4.49525e-06 0.224287)
(2.58828e-06 4.60422e-06 0.224293)
(1.60503e-06 4.68932e-06 0.224297)
(4.90576e-07 4.73997e-06 0.224299)
(-6.95958e-07 4.74855e-06 0.224299)
(-1.88685e-06 4.71376e-06 0.224297)
(-3.00924e-06 4.63866e-06 0.224293)
(-3.98359e-06 4.53237e-06 0.224287)
(-4.73452e-06 4.40852e-06 0.224279)
(-5.19909e-06 4.28304e-06 0.224271)
(-5.33757e-06 4.17142e-06 0.224262)
(-5.14542e-06 4.08554e-06 0.224253)
(-4.66475e-06 4.03112e-06 0.224233)
(-3.99122e-06 4.00498e-06 0.224071)
(-3.28299e-06 3.98019e-06 0.222396)
(-2.64593e-06 3.7838e-06 0.208485)
(-1.20185e-06 2.45489e-06 0.127935)
(1.14096e-06 2.57495e-06 0.127945)
(2.48092e-06 3.94287e-06 0.208503)
(2.9895e-06 4.17119e-06 0.222415)
(3.53252e-06 4.23942e-06 0.224091)
(4.04427e-06 4.31389e-06 0.224253)
(4.41293e-06 4.41293e-06 0.224273)
(4.56908e-06 4.53514e-06 0.224282)
(4.47611e-06 4.67459e-06 0.224291)
(4.12399e-06 4.82206e-06 0.2243)
(3.52187e-06 4.96576e-06 0.224307)
(2.69412e-06 5.09237e-06 0.224313)
(1.67808e-06 5.18888e-06 0.224317)
(5.21671e-07 5.24439e-06 0.224319)
(-7.10828e-07 5.25237e-06 0.224319)
(-1.94594e-06 5.21282e-06 0.224317)
(-3.10521e-06 5.13121e-06 0.224313)
(-4.10377e-06 5.01917e-06 0.224307)
(-4.86294e-06 4.89251e-06 0.2243)
(-5.31927e-06 4.76858e-06 0.224291)
(-5.43572e-06 4.66301e-06 0.224283)
(-5.21318e-06 4.58651e-06 0.224273)
(-4.70091e-06 4.54258e-06 0.224253)
(-4.0018e-06 4.52527e-06 0.224091)
(-3.27931e-06 4.50285e-06 0.222416)
(-2.64088e-06 4.27904e-06 0.208504)
(-1.20016e-06 2.77124e-06 0.127946)
(1.14281e-06 2.6499e-06 0.127951)
(2.49559e-06 4.03964e-06 0.208512)
(3.02972e-06 4.27722e-06 0.222425)
(3.60005e-06 4.35873e-06 0.2241)
(4.14034e-06 4.45031e-06 0.224262)
(4.53514e-06 4.56908e-06 0.224282)
(4.71208e-06 4.71208e-06 0.224292)
(4.63138e-06 4.87179e-06 0.224301)
(4.28007e-06 5.03735e-06 0.224309)
(3.66541e-06 5.19551e-06 0.224317)
(2.81143e-06 5.33204e-06 0.224323)
(1.75707e-06 5.43368e-06 0.224327)
(5.54067e-07 5.49019e-06 0.224329)
(-7.27559e-07 5.49689e-06 0.224329)
(-2.00808e-06 5.45534e-06 0.224327)
(-3.20301e-06 5.3735e-06 0.224323)
(-4.22248e-06 5.26501e-06 0.224317)
(-4.98536e-06 5.14696e-06 0.224309)
(-5.42888e-06 5.03681e-06 0.224301)
(-5.51995e-06 4.94887e-06 0.224292)
(-5.26599e-06 4.8914e-06 0.224283)
(-4.72381e-06 4.86472e-06 0.224263)
(-4.00282e-06 4.85974e-06 0.224101)
(-3.26952e-06 4.84096e-06 0.222425)
(-2.62933e-06 4.59642e-06 0.208512)
(-1.19414e-06 2.96681e-06 0.127951)
(1.14638e-06 2.57579e-06 0.127956)
(2.51636e-06 3.91409e-06 0.20852)
(3.08067e-06 4.14934e-06 0.222433)
(3.68171e-06 4.24041e-06 0.224109)
(4.25267e-06 4.34436e-06 0.224271)
(4.67459e-06 4.47611e-06 0.224291)
(4.87179e-06 4.63138e-06 0.224301)
(4.80137e-06 4.80137e-06 0.22431)
(4.4477e-06 4.97423e-06 0.224318)
(3.81655e-06 5.13611e-06 0.224326)
(2.93227e-06 5.27277e-06 0.224332)
(1.83622e-06 5.37165e-06 0.224336)
(5.84875e-07 5.42409e-06 0.224338)
(-7.45685e-07 5.42763e-06 0.224338)
(-2.06934e-06 5.38573e-06 0.224336)
(-3.29558e-06 5.30852e-06 0.224332)
(-4.33037e-06 5.21099e-06 0.224326)
(-5.09123e-06 5.11051e-06 0.224318)
(-5.51747e-06 5.02332e-06 0.22431)
(-5.58122e-06 4.96125e-06 0.224301)
(-5.29721e-06 4.92905e-06 0.224292)
(-4.72982e-06 4.92314e-06 0.224272)
(-3.99367e-06 4.93132e-06 0.224109)
(-3.25546e-06 4.91608e-06 0.222434)
(-2.61445e-06 4.66185e-06 0.208521)
(-1.18563e-06 2.99732e-06 0.127956)
(1.152e-06 2.35076e-06 0.12796)
(2.54285e-06 3.56463e-06 0.208528)
(3.13963e-06 3.78509e-06 0.222442)
(3.77261e-06 3.87983e-06 0.224117)
(4.37423e-06 3.98882e-06 0.22428)
(4.82206e-06 4.12399e-06 0.2243)
(5.03735e-06 4.28007e-06 0.224309)
(4.97423e-06 4.4477e-06 0.224318)
(4.6148e-06 4.6148e-06 0.224327)
(3.96393e-06 4.76785e-06 0.224334)
(3.04696e-06 4.89355e-06 0.22434)
(1.90839e-06 4.98092e-06 0.224345)
(6.10043e-07 5.02351e-06 0.224347)
(-7.65924e-07 5.02124e-06 0.224347)
(-2.12721e-06 4.97952e-06 0.224345)
(-3.37778e-06 4.91011e-06 0.22434)
(-4.42055e-06 4.82861e-06 0.224334)
(-5.17311e-06 4.75144e-06 0.224327)
(-5.57823e-06 4.69256e-06 0.224319)
(-5.61428e-06 4.66036e-06 0.22431)
(-5.30392e-06 4.65543e-06 0.2243)
(-4.71854e-06 4.67009e-06 0.22428)
(-3.97621e-06 4.68946e-06 0.224118)
(-3.24063e-06 4.67654e-06 0.222442)
(-2.60084e-06 4.42724e-06 0.208528)
(-1.17729e-06 2.83475e-06 0.12796)
(1.15937e-06 1.98507e-06 0.127965)
(2.57325e-06 3.00709e-06 0.208535)
(3.20216e-06 3.19977e-06 0.222449)
(3.86552e-06 3.29058e-06 0.224125)
(4.49525e-06 3.39505e-06 0.224287)
(4.96577e-06 3.52187e-06 0.224307)
(5.19551e-06 3.66541e-06 0.224317)
(5.13611e-06 3.81655e-06 0.224326)
(4.76785e-06 3.96393e-06 0.224334)
(4.09529e-06 4.09529e-06 0.224342)
(3.14533e-06 4.19911e-06 0.224348)
(1.96616e-06 4.26666e-06 0.224352)
(6.25189e-07 4.29401e-06 0.224354)
(-7.89679e-07 4.28348e-06 0.224354)
(-2.18049e-06 4.24194e-06 0.224352)
(-3.44653e-06 4.1822e-06 0.224348)
(-4.4891e-06 4.11938e-06 0.224342)
(-5.22734e-06 4.06793e-06 0.224334)
(-5.60862e-06 4.03868e-06 0.224326)
(-5.61838e-06 4.03602e-06 0.224317)
(-5.28728e-06 4.0562e-06 0.224307)
(-4.69279e-06 4.08789e-06 0.224287)
(-3.95427e-06 4.11448e-06 0.224125)
(-3.22917e-06 4.10238e-06 0.222449)
(-2.59355e-06 3.8749e-06 0.208535)
(-1.17208e-06 2.4702e-06 0.127965)
(1.16777e-06 1.49771e-06 0.127968)
(2.60443e-06 2.26905e-06 0.20854)
(3.26199e-06 2.42109e-06 0.222455)
(3.95143e-06 2.4991e-06 0.224131)
(4.60422e-06 2.58828e-06 0.224293)
(5.09237e-06 2.69412e-06 0.224313)
(5.33204e-06 2.81143e-06 0.224323)
(5.27277e-06 2.93227e-06 0.224332)
(4.89355e-06 3.04696e-06 0.22434)
(4.19911e-06 3.14533e-06 0.224348)
(3.21832e-06 3.21832e-06 0.224354)
(2.00328e-06 3.25981e-06 0.224358)
(6.26862e-07 3.26836e-06 0.22436)
(-8.18003e-07 3.24839e-06 0.22436)
(-2.22851e-06 3.20743e-06 0.224358)
(-3.50038e-06 3.15848e-06 0.224354)
(-4.53487e-06 3.11509e-06 0.224348)
(-5.25386e-06 3.08892e-06 0.22434)
(-5.61019e-06 3.0871e-06 0.224332)
(-5.59678e-06 3.10999e-06 0.224323)
(-5.25184e-06 3.14993e-06 0.224313)
(-4.65752e-06 3.19299e-06 0.224293)
(-3.93226e-06 3.22216e-06 0.224131)
(-3.22454e-06 3.21012e-06 0.222455)
(-2.59578e-06 3.02203e-06 0.20854)
(-1.17161e-06 1.91639e-06 0.127968)
(1.17592e-06 9.14088e-07 0.12797)
(2.63245e-06 1.38624e-06 0.208544)
(3.31205e-06 1.4857e-06 0.222459)
(4.02051e-06 1.54178e-06 0.224135)
(4.68932e-06 1.60503e-06 0.224297)
(5.18888e-06 1.67808e-06 0.224317)
(5.43368e-06 1.75707e-06 0.224327)
(5.37165e-06 1.83622e-06 0.224336)
(4.98092e-06 1.90839e-06 0.224345)
(4.26666e-06 1.96616e-06 0.224352)
(3.25981e-06 2.00328e-06 0.224358)
(2.0162e-06 2.0162e-06 0.224362)
(6.1377e-07 2.00552e-06 0.224365)
(-8.5062e-07 1.97713e-06 0.224365)
(-2.27042e-06 1.9383e-06 0.224362)
(-3.5389e-06 1.9011e-06 0.224358)
(-4.55872e-06 1.8766e-06 0.224352)
(-5.25538e-06 1.8731e-06 0.224345)
(-5.58757e-06 1.894e-06 0.224336)
(-5.55556e-06 1.93598e-06 0.224327)
(-5.20411e-06 1.9886e-06 0.224317)
(-4.61838e-06 2.03678e-06 0.224297)
(-3.91379e-06 2.0646e-06 0.224135)
(-3.2282e-06 2.05343e-06 0.222459)
(-2.60818e-06 1.92134e-06 0.208544)
(-1.17616e-06 1.20796e-06 0.12797)
(1.18234e-06 2.63846e-07 0.127972)
(2.65297e-06 4.0039e-07 0.208546)
(3.34529e-06 4.36541e-07 0.222461)
(4.0635e-06 4.62325e-07 0.224137)
(4.73997e-06 4.90576e-07 0.224299)
(5.24439e-06 5.21671e-07 0.224319)
(5.49019e-06 5.54067e-07 0.224329)
(5.42409e-06 5.84874e-07 0.224338)
(5.02351e-06 6.10043e-07 0.224347)
(4.29401e-06 6.25189e-07 0.224354)
(3.26836e-06 6.26862e-07 0.22436)
(2.00552e-06 6.13769e-07 0.224365)
(5.87788e-07 5.87787e-07 0.224367)
(-8.85243e-07 5.55101e-07 0.224367)
(-2.30456e-06 5.21728e-07 0.224365)
(-3.56211e-06 4.97577e-07 0.224361)
(-4.56291e-06 4.90472e-07 0.224354)
(-5.2365e-06 5.05255e-07 0.224347)
(-5.54734e-06 5.42139e-07 0.224338)
(-5.50218e-06 5.95239e-07 0.224329)
(-5.15093e-06 6.52966e-07 0.224319)
(-4.5801e-06 7.00819e-07 0.224299)
(-3.90053e-06 7.25716e-07 0.224137)
(-3.23899e-06 7.18515e-07 0.222461)
(-2.62852e-06 6.56653e-07 0.208546)
(-1.18469e-06 3.9917e-07 0.127971)
(1.18579e-06 -4.18717e-07 0.127972)
(2.66189e-06 -6.39459e-07 0.208546)
(3.35522e-06 -6.74224e-07 0.222461)
(4.07279e-06 -6.84247e-07 0.224137)
(4.74855e-06 -6.95958e-07 0.224299)
(5.25237e-06 -7.10828e-07 0.224319)
(5.49689e-06 -7.2756e-07 0.224329)
(5.42763e-06 -7.45685e-07 0.224338)
(5.02124e-06 -7.65924e-07 0.224347)
(4.28348e-06 -7.8968e-07 0.224354)
(3.24839e-06 -8.18004e-07 0.22436)
(1.97713e-06 -8.5062e-07 0.224365)
(5.55102e-07 -8.85243e-07 0.224367)
(-9.16687e-07 -9.16688e-07 0.224367)
(-2.32796e-06 -9.40676e-07 0.224365)
(-3.57019e-06 -9.50565e-07 0.224361)
(-4.55107e-06 -9.41952e-07 0.224355)
(-5.20375e-06 -9.13177e-07 0.224347)
(-5.49762e-06 -8.6645e-07 0.224338)
(-5.44475e-06 -8.08814e-07 0.224329)
(-5.0985e-06 -7.51266e-07 0.224319)
(-4.54512e-06 -7.06244e-07 0.224299)
(-3.8907e-06 -6.8331e-07 0.224137)
(-3.25232e-06 -6.81766e-07 0.222461)
(-2.6517e-06 -6.63922e-07 0.208546)
(-1.19512e-06 -4.41095e-07 0.127971)
(1.18542e-06 -1.09643e-06 0.12797)
(2.65685e-06 -1.67878e-06 0.208544)
(3.33898e-06 -1.78773e-06 0.222459)
(4.04599e-06 -1.83514e-06 0.224135)
(4.71376e-06 -1.88685e-06 0.224297)
(5.21282e-06 -1.94594e-06 0.224317)
(5.45534e-06 -2.00808e-06 0.224327)
(5.38573e-06 -2.06934e-06 0.224336)
(4.97952e-06 -2.12721e-06 0.224345)
(4.24194e-06 -2.18049e-06 0.224352)
(3.20743e-06 -2.22851e-06 0.224358)
(1.9383e-06 -2.27042e-06 0.224362)
(5.21728e-07 -2.30456e-06 0.224365)
(-9.40675e-07 -2.32796e-06 0.224365)
(-2.33845e-06 -2.33845e-06 0.224363)
(-3.56341e-06 -2.33314e-06 0.224358)
(-4.52556e-06 -2.31073e-06 0.224352)
(-5.16104e-06 -2.27205e-06 0.224345)
(-5.44301e-06 -2.22057e-06 0.224336)
(-5.38704e-06 -2.16284e-06 0.224327)
(-5.04842e-06 -2.10772e-06 0.224317)
(-4.5126e-06 -2.06457e-06 0.224297)
(-3.88089e-06 -2.03959e-06 0.224135)
(-3.26272e-06 -2.02337e-06 0.222459)
(-2.67282e-06 -1.9228e-06 0.208544)
(-1.20595e-06 -1.23901e-06 0.12797)
(1.18117e-06 -1.73047e-06 0.127968)
(2.63705e-06 -2.659e-06 0.20854)
(3.29614e-06 -2.84016e-06 0.222455)
(3.98415e-06 -2.92238e-06 0.22413)
(4.63866e-06 -3.00924e-06 0.224293)
(5.13121e-06 -3.10521e-06 0.224313)
(5.3735e-06 -3.20301e-06 0.224323)
(5.30852e-06 -3.29558e-06 0.224332)
(4.91011e-06 -3.37778e-06 0.22434)
(4.1822e-06 -3.44653e-06 0.224348)
(3.15849e-06 -3.50039e-06 0.224354)
(1.9011e-06 -3.5389e-06 0.224358)
(4.97577e-07 -3.56211e-06 0.224361)
(-9.50565e-07 -3.57019e-06 0.224361)
(-2.33314e-06 -3.56341e-06 0.224358)
(-3.54248e-06 -3.54248e-06 0.224354)
(-4.49002e-06 -3.50867e-06 0.224348)
(-5.11362e-06 -3.46405e-06 0.224341)
(-5.38847e-06 -3.41167e-06 0.224332)
(-5.33197e-06 -3.35591e-06 0.224323)
(-5.00038e-06 -3.30232e-06 0.224313)
(-4.47838e-06 -3.25689e-06 0.224293)
(-3.86415e-06 -3.223e-06 0.22413)
(-3.26282e-06 -3.18579e-06 0.222455)
(-2.68636e-06 -3.00694e-06 0.20854)
(-1.21553e-06 -1.92506e-06 0.127968)
(1.17341e-06 -2.28039e-06 0.127964)
(2.60384e-06 -3.51727e-06 0.208534)
(3.23035e-06 -3.762e-06 0.222449)
(3.89363e-06 -3.87164e-06 0.224124)
(4.53237e-06 -3.98359e-06 0.224287)
(5.01917e-06 -4.10377e-06 0.224307)
(5.26501e-06 -4.22248e-06 0.224317)
(5.21099e-06 -4.33037e-06 0.224326)
(4.82861e-06 -4.42055e-06 0.224334)
(4.11938e-06 -4.4891e-06 0.224342)
(3.1151e-06 -4.53487e-06 0.224348)
(1.8766e-06 -4.55872e-06 0.224352)
(4.90473e-07 -4.56291e-06 0.224354)
(-9.41951e-07 -4.55107e-06 0.224355)
(-2.31073e-06 -4.52556e-06 0.224352)
(-3.50867e-06 -4.49002e-06 0.224348)
(-4.44714e-06 -4.44714e-06 0.224342)
(-5.06407e-06 -4.39878e-06 0.224335)
(-5.33493e-06 -4.34609e-06 0.224326)
(-5.27777e-06 -4.29021e-06 0.224317)
(-4.94964e-06 -4.23323e-06 0.224307)
(-4.43545e-06 -4.17839e-06 0.224287)
(-3.83275e-06 -4.128e-06 0.224125)
(-3.24569e-06 -4.06519e-06 0.222449)
(-2.6876e-06 -3.82106e-06 0.208535)
(-1.22231e-06 -2.4425e-06 0.127965)
(1.16288e-06 -2.70782e-06 0.12796)
(2.56058e-06 -4.19203e-06 0.208528)
(3.14889e-06 -4.48533e-06 0.222441)
(3.78509e-06 -4.61115e-06 0.224117)
(4.40852e-06 -4.73452e-06 0.224279)
(4.89251e-06 -4.86294e-06 0.2243)
(5.14696e-06 -4.98536e-06 0.224309)
(5.11051e-06 -5.09123e-06 0.224318)
(4.75144e-06 -5.17311e-06 0.224327)
(4.06793e-06 -5.22734e-06 0.224334)
(3.08892e-06 -5.25386e-06 0.22434)
(1.8731e-06 -5.25538e-06 0.224345)
(5.05256e-07 -5.2365e-06 0.224347)
(-9.13177e-07 -5.20375e-06 0.224347)
(-2.27205e-06 -5.16104e-06 0.224345)
(-3.46404e-06 -5.11362e-06 0.224341)
(-4.39878e-06 -5.06407e-06 0.224335)
(-5.01259e-06 -5.01259e-06 0.224327)
(-5.27995e-06 -4.95747e-06 0.224319)
(-5.21919e-06 -4.89646e-06 0.22431)
(-4.88882e-06 -4.82891e-06 0.2243)
(-4.37584e-06 -4.75689e-06 0.22428)
(-3.77968e-06 -4.68371e-06 0.224118)
(-3.20601e-06 -4.59405e-06 0.222442)
(-2.67244e-06 -4.30539e-06 0.208528)
(-1.22404e-06 -2.75695e-06 0.127961)
(1.15086e-06 -2.97988e-06 0.127955)
(2.51241e-06 -4.62913e-06 0.20852)
(3.06156e-06 -4.95083e-06 0.222433)
(3.67188e-06 -5.07938e-06 0.224109)
(4.28304e-06 -5.19909e-06 0.224271)
(4.76858e-06 -5.31927e-06 0.224291)
(5.03681e-06 -5.42888e-06 0.224301)
(5.02332e-06 -5.51747e-06 0.22431)
(4.69256e-06 -5.57823e-06 0.224319)
(4.03868e-06 -5.60862e-06 0.224326)
(3.0871e-06 -5.61019e-06 0.224332)
(1.894e-06 -5.58757e-06 0.224336)
(5.42139e-07 -5.54734e-06 0.224338)
(-8.6645e-07 -5.49762e-06 0.224338)
(-2.22056e-06 -5.44301e-06 0.224336)
(-3.41167e-06 -5.38847e-06 0.224332)
(-4.34609e-06 -5.33493e-06 0.224326)
(-4.95747e-06 -5.27995e-06 0.224319)
(-5.21882e-06 -5.21882e-06 0.224311)
(-5.14928e-06 -5.14674e-06 0.224302)
(-4.81034e-06 -5.06196e-06 0.224292)
(-4.29313e-06 -4.96739e-06 0.224272)
(-3.70108e-06 -4.86945e-06 0.224109)
(-3.14214e-06 -4.75715e-06 0.222434)
(-2.63886e-06 -4.45034e-06 0.208521)
(-1.21842e-06 -2.86335e-06 0.127956)
(1.13888e-06 -3.07404e-06 0.127951)
(2.46541e-06 -4.7904e-06 0.208512)
(2.97907e-06 -5.1174e-06 0.222425)
(3.5678e-06 -5.23524e-06 0.2241)
(4.17142e-06 -5.33757e-06 0.224262)
(4.66301e-06 -5.43572e-06 0.224283)
(4.94887e-06 -5.51995e-06 0.224292)
(4.96125e-06 -5.58122e-06 0.224301)
(4.66036e-06 -5.61428e-06 0.22431)
(4.03602e-06 -5.61838e-06 0.224317)
(3.10999e-06 -5.59678e-06 0.224323)
(1.93598e-06 -5.55556e-06 0.224327)
(5.95239e-07 -5.50219e-06 0.224329)
(-8.08814e-07 -5.44475e-06 0.224329)
(-2.16284e-06 -5.38704e-06 0.224327)
(-3.35591e-06 -5.33197e-06 0.224323)
(-4.29021e-06 -5.27777e-06 0.224317)
(-4.89646e-06 -5.21919e-06 0.22431)
(-5.14674e-06 -5.14928e-06 0.224302)
(-5.06236e-06 -5.06236e-06 0.224293)
(-4.70971e-06 -4.95766e-06 0.224283)
(-4.18604e-06 -4.8411e-06 0.224263)
(-3.59964e-06 -4.72362e-06 0.224101)
(-3.05936e-06 -4.59969e-06 0.222425)
(-2.59008e-06 -4.30239e-06 0.208512)
(-1.20498e-06 -2.78755e-06 0.127951)
(1.12838e-06 -2.98417e-06 0.127945)
(2.42539e-06 -4.66416e-06 0.208503)
(2.91108e-06 -4.97375e-06 0.222415)
(3.48441e-06 -5.07004e-06 0.224091)
(4.08554e-06 -5.14542e-06 0.224253)
(4.58651e-06 -5.21318e-06 0.224273)
(4.89141e-06 -5.26599e-06 0.224283)
(4.92905e-06 -5.29722e-06 0.224292)
(4.65543e-06 -5.30392e-06 0.2243)
(4.0562e-06 -5.28728e-06 0.224307)
(3.14993e-06 -5.25184e-06 0.224313)
(1.9886e-06 -5.20411e-06 0.224317)
(6.52967e-07 -5.15093e-06 0.224319)
(-7.51266e-07 -5.0985e-06 0.224319)
(-2.10772e-06 -5.04842e-06 0.224317)
(-3.30232e-06 -5.00038e-06 0.224313)
(-4.23323e-06 -4.94964e-06 0.224307)
(-4.82891e-06 -4.88882e-06 0.2243)
(-5.06196e-06 -4.81034e-06 0.224292)
(-4.95766e-06 -4.70971e-06 0.224283)
(-4.58925e-06 -4.58925e-06 0.224274)
(-4.06138e-06 -4.45934e-06 0.224253)
(-3.48647e-06 -4.33576e-06 0.224091)
(-2.97078e-06 -4.21727e-06 0.222416)
(-2.53663e-06 -3.9531e-06 0.208504)
(-1.18715e-06 -2.57962e-06 0.127945)
(1.12012e-06 -2.72717e-06 0.127934)
(2.39622e-06 -4.27664e-06 0.208485)
(2.86383e-06 -4.5506e-06 0.222396)
(3.42846e-06 -4.61959e-06 0.224071)
(4.03112e-06 -4.66475e-06 0.224233)
(4.54258e-06 -4.70091e-06 0.224253)
(4.86472e-06 -4.72381e-06 0.224263)
(4.92314e-06 -4.72982e-06 0.224272)
(4.67009e-06 -4.71854e-06 0.22428)
(4.08789e-06 -4.69279e-06 0.224287)
(3.19299e-06 -4.65752e-06 0.224293)
(2.03678e-06 -4.61838e-06 0.224297)
(7.00819e-07 -4.5801e-06 0.224299)
(-7.06244e-07 -4.54512e-06 0.224299)
(-2.06457e-06 -4.5126e-06 0.224297)
(-3.25689e-06 -4.47838e-06 0.224293)
(-4.17839e-06 -4.43545e-06 0.224287)
(-4.75689e-06 -4.37584e-06 0.22428)
(-4.96739e-06 -4.29313e-06 0.224272)
(-4.8411e-06 -4.18604e-06 0.224263)
(-4.45934e-06 -4.06138e-06 0.224253)
(-3.93431e-06 -3.93431e-06 0.224233)
(-3.38025e-06 -3.82389e-06 0.224071)
(-2.89606e-06 -3.73015e-06 0.222396)
(-2.4956e-06 -3.51498e-06 0.208485)
(-1.17258e-06 -2.30202e-06 0.127935)
(1.11345e-06 -2.34862e-06 0.127847)
(2.37771e-06 -3.70139e-06 0.208336)
(2.83744e-06 -3.92968e-06 0.222235)
(3.39898e-06 -3.9723e-06 0.223909)
(4.00498e-06 -3.99122e-06 0.224071)
(4.52527e-06 -4.0018e-06 0.224091)
(4.85974e-06 -4.00282e-06 0.224101)
(4.93132e-06 -3.99367e-06 0.224109)
(4.68946e-06 -3.97621e-06 0.224118)
(4.11448e-06 -3.95427e-06 0.224125)
(3.22216e-06 -3.93226e-06 0.224131)
(2.0646e-06 -3.91379e-06 0.224135)
(7.25717e-07 -3.90053e-06 0.224137)
(-6.8331e-07 -3.8907e-06 0.224137)
(-2.03959e-06 -3.88089e-06 0.224135)
(-3.223e-06 -3.86415e-06 0.22413)
(-4.128e-06 -3.83275e-06 0.224125)
(-4.68371e-06 -3.77968e-06 0.224118)
(-4.86945e-06 -3.70108e-06 0.224109)
(-4.72362e-06 -3.59964e-06 0.224101)
(-4.33576e-06 -3.48647e-06 0.224091)
(-3.82389e-06 -3.38025e-06 0.224071)
(-3.30066e-06 -3.30066e-06 0.223909)
(-2.85456e-06 -3.24666e-06 0.222235)
(-2.48365e-06 -3.0866e-06 0.208336)
(-1.16923e-06 -2.01332e-06 0.127847)
(1.10325e-06 -1.93157e-06 0.126934)
(2.35808e-06 -3.0709e-06 0.206794)
(2.81539e-06 -3.25479e-06 0.220577)
(3.37421e-06 -3.27949e-06 0.222236)
(3.98019e-06 -3.28299e-06 0.222396)
(4.50285e-06 -3.27931e-06 0.222416)
(4.84096e-06 -3.26952e-06 0.222425)
(4.91609e-06 -3.25546e-06 0.222434)
(4.67654e-06 -3.24063e-06 0.222442)
(4.10238e-06 -3.22917e-06 0.222449)
(3.21012e-06 -3.22454e-06 0.222455)
(2.05343e-06 -3.2282e-06 0.222459)
(7.18515e-07 -3.23899e-06 0.222461)
(-6.81765e-07 -3.25232e-06 0.222461)
(-2.02337e-06 -3.26272e-06 0.222459)
(-3.18579e-06 -3.26282e-06 0.222455)
(-4.06519e-06 -3.24569e-06 0.222449)
(-4.59405e-06 -3.20601e-06 0.222442)
(-4.75715e-06 -3.14214e-06 0.222434)
(-4.59968e-06 -3.05936e-06 0.222425)
(-4.21727e-06 -2.97078e-06 0.222416)
(-3.73015e-06 -2.89606e-06 0.222396)
(-3.24666e-06 -2.85456e-06 0.222235)
(-2.84425e-06 -2.84425e-06 0.220576)
(-2.49833e-06 -2.73321e-06 0.206793)
(-1.17672e-06 -1.75948e-06 0.126934)
(1.04242e-06 -1.53495e-06 0.119253)
(2.23602e-06 -2.46719e-06 0.193942)
(2.67468e-06 -2.61918e-06 0.206794)
(3.20725e-06 -2.64224e-06 0.208336)
(3.7838e-06 -2.64593e-06 0.208485)
(4.27904e-06 -2.64088e-06 0.208504)
(4.59642e-06 -2.62933e-06 0.208512)
(4.66185e-06 -2.61445e-06 0.208521)
(4.42724e-06 -2.60084e-06 0.208528)
(3.8749e-06 -2.59355e-06 0.208535)
(3.02203e-06 -2.59578e-06 0.20854)
(1.92134e-06 -2.60818e-06 0.208544)
(6.56654e-07 -2.62852e-06 0.208546)
(-6.63922e-07 -2.6517e-06 0.208546)
(-1.9228e-06 -2.67282e-06 0.208544)
(-3.00694e-06 -2.68636e-06 0.20854)
(-3.82106e-06 -2.6876e-06 0.208535)
(-4.30539e-06 -2.67244e-06 0.208528)
(-4.45034e-06 -2.63886e-06 0.208521)
(-4.30239e-06 -2.59008e-06 0.208512)
(-3.9531e-06 -2.53663e-06 0.208504)
(-3.51498e-06 -2.4956e-06 0.208485)
(-3.0866e-06 -2.48365e-06 0.208336)
(-2.73321e-06 -2.49833e-06 0.206793)
(-2.41449e-06 -2.41449e-06 0.193941)
(-1.13558e-06 -1.53186e-06 0.119253)
(6.51117e-07 -6.82953e-07 0.0740473)
(1.41548e-06 -1.1102e-06 0.119254)
(1.71609e-06 -1.18358e-06 0.126934)
(2.07656e-06 -1.19785e-06 0.127847)
(2.45489e-06 -1.20185e-06 0.127935)
(2.77124e-06 -1.20016e-06 0.127946)
(2.96681e-06 -1.19414e-06 0.127951)
(2.99732e-06 -1.18563e-06 0.127956)
(2.83475e-06 -1.17729e-06 0.12796)
(2.4702e-06 -1.17208e-06 0.127965)
(1.91639e-06 -1.17161e-06 0.127968)
(1.20796e-06 -1.17616e-06 0.12797)
(3.9917e-07 -1.18469e-06 0.127971)
(-4.41095e-07 -1.19512e-06 0.127971)
(-1.23901e-06 -1.20595e-06 0.12797)
(-1.92506e-06 -1.21553e-06 0.127968)
(-2.4425e-06 -1.22231e-06 0.127965)
(-2.75695e-06 -1.22404e-06 0.127961)
(-2.86335e-06 -1.21842e-06 0.127956)
(-2.78755e-06 -1.20498e-06 0.127951)
(-2.57962e-06 -1.18715e-06 0.127945)
(-2.30202e-06 -1.17258e-06 0.127935)
(-2.01332e-06 -1.16923e-06 0.127847)
(-1.75948e-06 -1.17672e-06 0.126934)
(-1.53186e-06 -1.13558e-06 0.119253)
(-7.12719e-07 -7.12719e-07 0.0740473)
(9.44096e-07 9.44096e-07 0.0740437)
(2.43973e-06 1.55229e-06 0.11925)
(3.55634e-06 1.6442e-06 0.126931)
(4.60419e-06 1.65614e-06 0.127844)
(5.4856e-06 1.66333e-06 0.127932)
(6.09171e-06 1.67305e-06 0.127943)
(6.35192e-06 1.68578e-06 0.127949)
(6.23146e-06 1.70098e-06 0.127954)
(5.72803e-06 1.71754e-06 0.127959)
(4.86739e-06 1.734e-06 0.127963)
(3.69938e-06 1.74864e-06 0.127967)
(2.29375e-06 1.75957e-06 0.12797)
(7.34227e-07 1.76541e-06 0.127971)
(-8.83835e-07 1.76589e-06 0.127971)
(-2.46096e-06 1.76112e-06 0.12797)
(-3.89978e-06 1.75283e-06 0.127967)
(-5.10826e-06 1.7426e-06 0.127963)
(-6.00809e-06 1.73163e-06 0.127959)
(-6.54013e-06 1.72102e-06 0.127954)
(-6.67048e-06 1.71162e-06 0.127949)
(-6.39658e-06 1.70401e-06 0.127943)
(-5.75295e-06 1.69839e-06 0.127932)
(-4.81513e-06 1.69389e-06 0.127845)
(-3.70706e-06 1.68322e-06 0.126932)
(-2.53515e-06 1.59179e-06 0.119251)
(-9.82571e-07 9.75341e-07 0.0740441)
(1.55229e-06 2.43973e-06 0.11925)
(3.9378e-06 3.9378e-06 0.19394)
(5.62788e-06 4.1663e-06 0.206793)
(7.18749e-06 4.19673e-06 0.208336)
(8.49052e-06 4.21603e-06 0.208485)
(9.3752e-06 4.2435e-06 0.208503)
(9.73617e-06 4.27979e-06 0.208513)
(9.5233e-06 4.32281e-06 0.208521)
(8.7356e-06 4.36934e-06 0.20853)
(7.41323e-06 4.41529e-06 0.208537)
(5.63078e-06 4.45608e-06 0.208543)
(3.49123e-06 4.48718e-06 0.208547)
(1.11806e-06 4.50501e-06 0.208549)
(-1.34739e-06 4.50772e-06 0.208549)
(-3.75631e-06 4.49486e-06 0.208547)
(-5.96179e-06 4.46876e-06 0.208543)
(-7.82347e-06 4.43266e-06 0.208537)
(-9.2202e-06 4.39031e-06 0.20853)
(-1.00593e-05 4.34603e-06 0.208522)
(-1.02868e-05 4.30422e-06 0.208513)
(-9.89725e-06 4.26886e-06 0.208504)
(-8.94314e-06 4.24267e-06 0.208486)
(-7.54123e-06 4.22483e-06 0.208337)
(-5.88112e-06 4.19596e-06 0.206794)
(-4.10796e-06 3.97319e-06 0.193941)
(-1.62529e-06 2.4804e-06 0.119251)
(1.6442e-06 3.55634e-06 0.126931)
(4.1663e-06 5.62788e-06 0.206793)
(5.95425e-06 5.95425e-06 0.220577)
(7.60376e-06 6.00569e-06 0.222236)
(8.98001e-06 6.04161e-06 0.222396)
(9.91387e-06 6.09047e-06 0.222417)
(1.02949e-05 6.15226e-06 0.222426)
(1.00702e-05 6.22334e-06 0.222436)
(9.23873e-06 6.29853e-06 0.222445)
(7.84232e-06 6.37159e-06 0.222452)
(5.95911e-06 6.43564e-06 0.222459)
(3.69725e-06 6.48416e-06 0.222463)
(1.18639e-06 6.51179e-06 0.222465)
(-1.42435e-06 6.51477e-06 0.222465)
(-3.97717e-06 6.49208e-06 0.222463)
(-6.31575e-06 6.44572e-06 0.222459)
(-8.29028e-06 6.38026e-06 0.222453)
(-9.77139e-06 6.30236e-06 0.222445)
(-1.06603e-05 6.21995e-06 0.222436)
(-1.08997e-05 6.14126e-06 0.222427)
(-1.04846e-05 6.07365e-06 0.222418)
(-9.47224e-06 6.02226e-06 0.222398)
(-7.98768e-06 5.98663e-06 0.222237)
(-6.23176e-06 5.9376e-06 0.220578)
(-4.36407e-06 5.62265e-06 0.206794)
(-1.7328e-06 3.57684e-06 0.126932)
(1.65614e-06 4.60419e-06 0.127844)
(4.19673e-06 7.18749e-06 0.208336)
(6.00569e-06 7.60376e-06 0.222236)
(7.681e-06 7.681e-06 0.223909)
(9.08195e-06 7.73852e-06 0.224072)
(1.00357e-05 7.81206e-06 0.224092)
(1.04299e-05 7.90146e-06 0.224102)
(1.02103e-05 8.00179e-06 0.224112)
(9.37432e-06 8.10607e-06 0.22412)
(7.96334e-06 8.20604e-06 0.224128)
(6.05561e-06 8.29276e-06 0.224135)
(3.76052e-06 8.35769e-06 0.224139)
(1.20976e-06 8.39382e-06 0.224141)
(-1.44435e-06 8.39645e-06 0.224141)
(-4.03999e-06 8.36471e-06 0.224139)
(-6.41687e-06 8.30142e-06 0.224135)
(-8.42149e-06 8.21286e-06 0.224128)
(-9.92162e-06 8.1081e-06 0.224121)
(-1.08169e-05 7.99778e-06 0.224112)
(-1.10499e-05 7.89276e-06 0.224103)
(-1.06174e-05 7.80235e-06 0.224093)
(-9.58015e-06 7.73265e-06 0.224073)
(-8.06798e-06 7.68256e-06 0.223911)
(-6.28771e-06 7.61386e-06 0.222238)
(-4.40859e-06 7.20984e-06 0.208337)
(-1.75396e-06 4.63688e-06 0.127845)
(1.66333e-06 5.48559e-06 0.127932)
(4.21603e-06 8.49052e-06 0.208485)
(6.04161e-06 8.98001e-06 0.222396)
(7.73852e-06 9.08195e-06 0.224072)
(9.16206e-06 9.16206e-06 0.224234)
(1.01355e-05 9.26087e-06 0.224255)
(1.05443e-05 9.37786e-06 0.224265)
(1.0332e-05 9.5066e-06 0.224274)
(9.49459e-06 9.63837e-06 0.224283)
(8.07232e-06 9.76297e-06 0.224291)
(6.14345e-06 9.86966e-06 0.224297)
(3.81848e-06 9.94846e-06 0.224302)
(1.23143e-06 9.99129e-06 0.224304)
(-1.46183e-06 9.99345e-06 0.224304)
(-4.09529e-06 9.95466e-06 0.224302)
(-6.50463e-06 9.87893e-06 0.224297)
(-8.5329e-06 9.7743e-06 0.224291)
(-1.00454e-05 9.65188e-06 0.224283)
(-1.09409e-05 9.5243e-06 0.224275)
(-1.11629e-05 9.40396e-06 0.224266)
(-1.07108e-05 9.30092e-06 0.224256)
(-9.64948e-06 9.22119e-06 0.224236)
(-8.11365e-06 9.16253e-06 0.224073)
(-6.31544e-06 9.07929e-06 0.222398)
(-4.43007e-06 8.59856e-06 0.208486)
(-1.76389e-06 5.55836e-06 0.127933)
(1.67305e-06 6.09171e-06 0.127943)
(4.2435e-06 9.3752e-06 0.208503)
(6.09047e-06 9.91387e-06 0.222417)
(7.81206e-06 1.00357e-05 0.224092)
(9.26087e-06 1.01355e-05 0.224255)
(1.02562e-05 1.02562e-05 0.224275)
(1.06806e-05 1.03963e-05 0.224285)
(1.04755e-05 1.05483e-05 0.224295)
(9.63495e-06 1.07018e-05 0.224304)
(8.19819e-06 1.08451e-05 0.224311)
(6.24378e-06 1.09663e-05 0.224318)
(3.8838e-06 1.10547e-05 0.224322)
(1.25524e-06 1.11017e-05 0.224325)
(-1.48172e-06 1.11034e-05 0.224325)
(-4.15651e-06 1.10605e-05 0.224322)
(-6.60044e-06 1.09781e-05 0.224318)
(-8.65285e-06 1.08659e-05 0.224312)