/*--------------------------------*- C++ -*----------------------------------*\
  =========                 |
  \\      /  F ield         | OpenFOAM: The Open Source CFD Toolbox
   \\    /   O peration     | Website:  https://openfoam.org
    \\  /    A nd           | Version:  7
     \\/     M anipulation  |
\*---------------------------------------------------------------------------*/
FoamFile
{
    version     2.0;
    format      ascii;
    class       volScalarField;
    location    "0.4";
    object      p;
}
// * * * * * * * * * * * * * * * * * * * * * * * * * * * * * * * * * * * * * //

dimensions      [0 2 -2 0 0 0 0];

internalField   nonuniform List<scalar> 
31632
(
-0.0020334
-0.00203339
-0.00203342
-0.00203348
-0.00203355
-0.00203364
-0.00203374
-0.00203386
-0.00203397
-0.00203407
-0.00203415
-0.00203421
-0.00203424
-0.00203423
-0.0020342
-0.00203414
-0.00203406
-0.00203397
-0.00203387
-0.00203378
-0.00203369
-0.00203361
-0.00203354
-0.00203349
-0.00203346
-0.00203346
-0.00203339
-0.00203329
-0.00203329
-0.00203333
-0.00203339
-0.00203348
-0.00203358
-0.00203368
-0.00203379
-0.00203388
-0.00203396
-0.00203401
-0.00203403
-0.00203402
-0.00203399
-0.00203394
-0.00203387
-0.00203379
-0.0020337
-0.00203362
-0.00203354
-0.00203347
-0.00203341
-0.00203338
-0.00203338
-0.00203348
-0.00203342
-0.00203329
-0.00203327
-0.0020333
-0.00203337
-0.00203345
-0.00203354
-0.00203365
-0.00203375
-0.00203384
-0.00203391
-0.00203396
-0.00203398
-0.00203397
-0.00203394
-0.00203389
-0.00203383
-0.00203375
-0.00203368
-0.0020336
-0.00203353
-0.00203347
-0.00203341
-0.00203339
-0.0020334
-0.00203353
-0.00203348
-0.00203333
-0.0020333
-0.00203333
-0.00203339
-0.00203347
-0.00203357
-0.00203367
-0.00203377
-0.00203385
-0.00203392
-0.00203397
-0.00203399
-0.00203398
-0.00203395
-0.00203391
-0.00203385
-0.00203378
-0.00203371
-0.00203364
-0.00203357
-0.00203351
-0.00203346
-0.00203344
-0.00203346
-0.0020336
-0.00203355
-0.00203339
-0.00203337
-0.00203339
-0.00203345
-0.00203353
-0.00203363
-0.00203372
-0.00203382
-0.0020339
-0.00203397
-0.00203401
-0.00203403
-0.00203402
-0.002034
-0.00203396
-0.0020339
-0.00203384
-0.00203377
-0.0020337
-0.00203364
-0.00203359
-0.00203354
-0.00203352
-0.00203354
-0.00203368
-0.00203364
-0.00203348
-0.00203345
-0.00203347
-0.00203353
-0.00203361
-0.0020337
-0.00203379
-0.00203389
-0.00203397
-0.00203403
-0.00203407
-0.00203409
-0.00203408
-0.00203406
-0.00203402
-0.00203397
-0.00203391
-0.00203385
-0.00203378
-0.00203372
-0.00203367
-0.00203363
-0.0020336
-0.00203362
-0.00203377
-0.00203374
-0.00203358
-0.00203354
-0.00203357
-0.00203363
-0.0020337
-0.00203379
-0.00203388
-0.00203396
-0.00203404
-0.0020341
-0.00203414
-0.00203415
-0.00203415
-0.00203413
-0.00203409
-0.00203404
-0.00203398
-0.00203392
-0.00203387
-0.00203381
-0.00203375
-0.00203371
-0.00203369
-0.00203371
-0.00203386
-0.00203386
-0.00203368
-0.00203365
-0.00203367
-0.00203372
-0.00203379
-0.00203388
-0.00203396
-0.00203404
-0.00203411
-0.00203417
-0.0020342
-0.00203422
-0.00203421
-0.00203419
-0.00203416
-0.00203411
-0.00203406
-0.002034
-0.00203394
-0.00203389
-0.00203383
-0.00203379
-0.00203376
-0.00203379
-0.00203395
-0.00203397
-0.00203379
-0.00203375
-0.00203377
-0.00203382
-0.00203389
-0.00203396
-0.00203404
-0.00203412
-0.00203418
-0.00203423
-0.00203426
-0.00203428
-0.00203428
-0.00203426
-0.00203422
-0.00203418
-0.00203413
-0.00203407
-0.00203401
-0.00203396
-0.0020339
-0.00203385
-0.00203383
-0.00203385
-0.00203403
-0.00203407
-0.00203388
-0.00203384
-0.00203385
-0.0020339
-0.00203397
-0.00203404
-0.00203411
-0.00203418
-0.00203424
-0.00203429
-0.00203432
-0.00203433
-0.00203433
-0.00203431
-0.00203428
-0.00203424
-0.00203419
-0.00203413
-0.00203407
-0.00203401
-0.00203395
-0.0020339
-0.00203388
-0.00203391
-0.0020341
-0.00203415
-0.00203396
-0.00203391
-0.00203392
-0.00203397
-0.00203403
-0.0020341
-0.00203417
-0.00203423
-0.00203429
-0.00203433
-0.00203436
-0.00203438
-0.00203438
-0.00203436
-0.00203433
-0.00203429
-0.00203424
-0.00203418
-0.00203412
-0.00203406
-0.00203399
-0.00203394
-0.00203391
-0.00203395
-0.00203415
-0.00203421
-0.00203401
-0.00203396
-0.00203397
-0.00203401
-0.00203407
-0.00203414
-0.0020342
-0.00203426
-0.00203432
-0.00203436
-0.00203439
-0.00203441
-0.00203441
-0.0020344
-0.00203437
-0.00203433
-0.00203427
-0.00203422
-0.00203415
-0.00203408
-0.00203402
-0.00203396
-0.00203394
-0.00203398
-0.00203419
-0.00203424
-0.00203403
-0.00203398
-0.00203399
-0.00203403
-0.00203409
-0.00203415
-0.00203422
-0.00203428
-0.00203433
-0.00203438
-0.00203441
-0.00203443
-0.00203443
-0.00203442
-0.00203439
-0.00203435
-0.00203429
-0.00203423
-0.00203417
-0.00203409
-0.00203402
-0.00203397
-0.00203394
-0.00203399
-0.00203421
-0.00203423
-0.00203402
-0.00203397
-0.00203398
-0.00203402
-0.00203408
-0.00203415
-0.00203421
-0.00203428
-0.00203433
-0.00203438
-0.00203441
-0.00203443
-0.00203444
-0.00203442
-0.00203439
-0.00203435
-0.0020343
-0.00203423
-0.00203416
-0.00203409
-0.00203401
-0.00203395
-0.00203393
-0.00203398
-0.0020342
-0.0020342
-0.00203399
-0.00203394
-0.00203395
-0.002034
-0.00203406
-0.00203413
-0.00203419
-0.00203426
-0.00203431
-0.00203436
-0.0020344
-0.00203442
-0.00203442
-0.00203441
-0.00203438
-0.00203433
-0.00203428
-0.00203421
-0.00203414
-0.00203406
-0.00203399
-0.00203393
-0.00203391
-0.00203396
-0.00203418
-0.00203414
-0.00203394
-0.00203389
-0.00203391
-0.00203396
-0.00203402
-0.00203409
-0.00203416
-0.00203422
-0.00203428
-0.00203433
-0.00203437
-0.00203439
-0.00203439
-0.00203438
-0.00203435
-0.0020343
-0.00203424
-0.00203418
-0.00203411
-0.00203403
-0.00203395
-0.00203389
-0.00203387
-0.00203392
-0.00203414
-0.00203406
-0.00203387
-0.00203383
-0.00203385
-0.0020339
-0.00203397
-0.00203404
-0.00203411
-0.00203418
-0.00203424
-0.00203429
-0.00203433
-0.00203435
-0.00203435
-0.00203433
-0.0020343
-0.00203425
-0.0020342
-0.00203414
-0.00203406
-0.00203399
-0.00203391
-0.00203385
-0.00203383
-0.00203388
-0.00203408
-0.00203397
-0.00203379
-0.00203375
-0.00203378
-0.00203384
-0.00203391
-0.00203398
-0.00203406
-0.00203413
-0.00203419
-0.00203424
-0.00203427
-0.00203429
-0.0020343
-0.00203428
-0.00203424
-0.0020342
-0.00203414
-0.00203408
-0.00203402
-0.00203394
-0.00203386
-0.0020338
-0.00203377
-0.00203382
-0.00203401
-0.00203387
-0.0020337
-0.00203368
-0.00203371
-0.00203377
-0.00203385
-0.00203392
-0.002034
-0.00203407
-0.00203413
-0.00203418
-0.00203422
-0.00203423
-0.00203423
-0.00203421
-0.00203418
-0.00203414
-0.00203408
-0.00203403
-0.00203396
-0.00203388
-0.0020338
-0.00203374
-0.00203371
-0.00203374
-0.00203392
-0.00203378
-0.00203362
-0.0020336
-0.00203364
-0.0020337
-0.00203378
-0.00203387
-0.00203394
-0.00203401
-0.00203407
-0.00203412
-0.00203415
-0.00203417
-0.00203416
-0.00203414
-0.00203411
-0.00203406
-0.00203402
-0.00203396
-0.00203389
-0.00203381
-0.00203373
-0.00203366
-0.00203363
-0.00203365
-0.00203382
-0.00203369
-0.00203354
-0.00203353
-0.00203357
-0.00203364
-0.00203372
-0.00203381
-0.00203389
-0.00203396
-0.00203401
-0.00203406
-0.00203408
-0.00203409
-0.00203409
-0.00203406
-0.00203403
-0.00203399
-0.00203394
-0.00203388
-0.00203381
-0.00203373
-0.00203364
-0.00203357
-0.00203353
-0.00203355
-0.00203371
-0.00203361
-0.00203347
-0.00203347
-0.00203351
-0.00203359
-0.00203367
-0.00203375
-0.00203383
-0.0020339
-0.00203395
-0.00203399
-0.00203402
-0.00203402
-0.00203401
-0.00203399
-0.00203395
-0.00203391
-0.00203386
-0.0020338
-0.00203373
-0.00203364
-0.00203355
-0.00203348
-0.00203343
-0.00203345
-0.0020336
-0.00203354
-0.00203341
-0.00203341
-0.00203346
-0.00203354
-0.00203363
-0.00203371
-0.00203379
-0.00203385
-0.0020339
-0.00203394
-0.00203396
-0.00203397
-0.00203395
-0.00203393
-0.00203389
-0.00203385
-0.0020338
-0.00203374
-0.00203366
-0.00203357
-0.00203348
-0.0020334
-0.00203336
-0.00203338
-0.00203353
-0.00203349
-0.00203338
-0.00203339
-0.00203344
-0.00203352
-0.0020336
-0.00203369
-0.00203376
-0.00203383
-0.00203388
-0.00203391
-0.00203394
-0.00203394
-0.00203393
-0.00203391
-0.00203387
-0.00203383
-0.00203377
-0.00203371
-0.00203363
-0.00203353
-0.00203343
-0.00203336
-0.00203332
-0.00203334
-0.00203348
-0.00203346
-0.00203338
-0.0020334
-0.00203346
-0.00203354
-0.00203362
-0.00203371
-0.00203379
-0.00203385
-0.00203391
-0.00203395
-0.00203398
-0.00203399
-0.00203398
-0.00203396
-0.00203392
-0.00203388
-0.00203382
-0.00203374
-0.00203365
-0.00203355
-0.00203345
-0.00203338
-0.00203334
-0.00203336
-0.00203347
-0.00203346
-0.00203348
-0.00203353
-0.0020336
-0.00203368
-0.00203377
-0.00203386
-0.00203395
-0.00203403
-0.0020341
-0.00203415
-0.00203419
-0.00203421
-0.0020342
-0.00203418
-0.00203414
-0.00203408
-0.00203401
-0.00203392
-0.00203382
-0.00203371
-0.0020336
-0.00203353
-0.00203348
-0.00203347
-0.00203347
-0.00609949
-0.00609939
-0.00609945
-0.00609961
-0.00609985
-0.00610016
-0.00610053
-0.00610092
-0.0061013
-0.00610165
-0.00610194
-0.00610214
-0.00610223
-0.00610222
-0.00610211
-0.00610191
-0.00610163
-0.00610131
-0.00610095
-0.0061006
-0.00610026
-0.00609997
-0.00609974
-0.00609958
-0.00609951
-0.00609961
-0.00609939
-0.0060991
-0.0060991
-0.00609925
-0.00609948
-0.00609979
-0.00610015
-0.00610054
-0.00610092
-0.00610127
-0.00610155
-0.00610174
-0.00610183
-0.00610182
-0.00610171
-0.00610151
-0.00610125
-0.00610093
-0.00610059
-0.00610024
-0.00609991
-0.00609963
-0.0060994
-0.00609926
-0.00609925
-0.00609954
-0.00609945
-0.0060991
-0.0060991
-0.00609924
-0.00609948
-0.00609979
-0.00610015
-0.00610053
-0.00610091
-0.00610125
-0.00610153
-0.00610172
-0.00610182
-0.00610181
-0.0061017
-0.00610151
-0.00610125
-0.00610094
-0.0061006
-0.00610025
-0.00609993
-0.00609965
-0.00609943
-0.0060993
-0.0060993
-0.00609964
-0.00609961
-0.00609925
-0.00609924
-0.00609938
-0.00609962
-0.00609992
-0.00610029
-0.00610067
-0.00610105
-0.00610139
-0.00610166
-0.00610186
-0.00610195
-0.00610194
-0.00610184
-0.00610165
-0.0061014
-0.00610109
-0.00610075
-0.00610041
-0.00610009
-0.00609982
-0.0060996
-0.00609947
-0.00609947
-0.00609982
-0.00609985
-0.00609948
-0.00609948
-0.00609962
-0.00609985
-0.00610016
-0.00610052
-0.0061009
-0.00610128
-0.00610162
-0.00610189
-0.00610208
-0.00610218
-0.00610218
-0.00610208
-0.00610189
-0.00610164
-0.00610133
-0.006101
-0.00610066
-0.00610034
-0.00610007
-0.00609986
-0.00609972
-0.00609973
-0.00610008
-0.00610016
-0.00609979
-0.00609979
-0.00609992
-0.00610016
-0.00610047
-0.00610082
-0.00610121
-0.00610158
-0.00610191
-0.00610219
-0.00610238
-0.00610248
-0.00610248
-0.00610238
-0.0061022
-0.00610194
-0.00610164
-0.0061013
-0.00610097
-0.00610065
-0.00610038
-0.00610017
-0.00610003
-0.00610003
-0.00610039
-0.00610053
-0.00610015
-0.00610015
-0.00610029
-0.00610052
-0.00610082
-0.00610118
-0.00610156
-0.00610193
-0.00610226
-0.00610253
-0.00610272
-0.00610282
-0.00610282
-0.00610272
-0.00610254
-0.00610229
-0.00610198
-0.00610165
-0.00610131
-0.006101
-0.00610072
-0.00610051
-0.00610037
-0.00610037
-0.00610072
-0.00610092
-0.00610054
-0.00610053
-0.00610067
-0.0061009
-0.00610121
-0.00610156
-0.00610193
-0.0061023
-0.00610262
-0.00610289
-0.00610308
-0.00610318
-0.00610318
-0.00610308
-0.0061029
-0.00610265
-0.00610234
-0.006102
-0.00610167
-0.00610135
-0.00610107
-0.00610086
-0.00610071
-0.00610071
-0.00610107
-0.0061013
-0.00610092
-0.00610091
-0.00610105
-0.00610128
-0.00610158
-0.00610193
-0.0061023
-0.00610266
-0.00610298
-0.00610325
-0.00610343
-0.00610353
-0.00610353
-0.00610344
-0.00610325
-0.006103
-0.00610269
-0.00610235
-0.00610201
-0.00610169
-0.00610141
-0.00610119
-0.00610104
-0.00610103
-0.0061014
-0.00610165
-0.00610127
-0.00610125
-0.00610139
-0.00610162
-0.00610191
-0.00610226
-0.00610262
-0.00610298
-0.0061033
-0.00610356
-0.00610375
-0.00610385
-0.00610385
-0.00610376
-0.00610357
-0.00610332
-0.00610301
-0.00610267
-0.00610233
-0.006102
-0.00610171
-0.00610148
-0.00610133
-0.00610132
-0.0061017
-0.00610194
-0.00610155
-0.00610153
-0.00610166
-0.00610189
-0.00610219
-0.00610253
-0.00610289
-0.00610325
-0.00610356
-0.00610383
-0.00610401
-0.00610411
-0.00610412
-0.00610402
-0.00610384
-0.00610358
-0.00610327
-0.00610293
-0.00610259
-0.00610226
-0.00610196
-0.00610172
-0.00610157
-0.00610156
-0.00610195
-0.00610214
-0.00610174
-0.00610172
-0.00610186
-0.00610208
-0.00610238
-0.00610272
-0.00610308
-0.00610343
-0.00610375
-0.00610401
-0.0061042
-0.0061043
-0.00610431
-0.00610422
-0.00610404
-0.00610378
-0.00610347
-0.00610312
-0.00610277
-0.00610243
-0.00610213
-0.00610188
-0.00610173
-0.00610173
-0.00610213
-0.00610223
-0.00610183
-0.00610182
-0.00610195
-0.00610218
-0.00610248
-0.00610282
-0.00610318
-0.00610353
-0.00610385
-0.00610411
-0.0061043
-0.00610441
-0.00610442
-0.00610433
-0.00610414
-0.00610388
-0.00610357
-0.00610322
-0.00610286
-0.00610252
-0.00610221
-0.00610196
-0.00610181
-0.00610182
-0.00610223
-0.00610222
-0.00610182
-0.00610181
-0.00610194
-0.00610218
-0.00610248
-0.00610282
-0.00610318
-0.00610353
-0.00610385
-0.00610412
-0.00610431
-0.00610442
-0.00610443
-0.00610433
-0.00610415
-0.00610388
-0.00610356
-0.00610321
-0.00610286
-0.00610251
-0.0061022
-0.00610195
-0.0061018
-0.00610181
-0.00610222
-0.00610211
-0.00610171
-0.0061017
-0.00610184
-0.00610208
-0.00610238
-0.00610272
-0.00610308
-0.00610344
-0.00610376
-0.00610402
-0.00610422
-0.00610433
-0.00610433
-0.00610424
-0.00610405
-0.00610378
-0.00610346
-0.00610311
-0.00610275
-0.0061024
-0.00610209
-0.00610184
-0.00610169
-0.00610171
-0.00610212
-0.00610191
-0.00610151
-0.00610151
-0.00610165
-0.00610189
-0.0061022
-0.00610254
-0.0061029
-0.00610325
-0.00610357
-0.00610384
-0.00610404
-0.00610414
-0.00610415
-0.00610405
-0.00610385
-0.00610359
-0.00610327
-0.00610292
-0.00610256
-0.00610222
-0.00610191
-0.00610166
-0.00610151
-0.00610153
-0.00610194
-0.00610163
-0.00610125
-0.00610125
-0.0061014
-0.00610164
-0.00610194
-0.00610229
-0.00610265
-0.006103
-0.00610332
-0.00610358
-0.00610378
-0.00610388
-0.00610388
-0.00610378
-0.00610359
-0.00610332
-0.006103
-0.00610266
-0.00610231
-0.00610197
-0.00610166
-0.00610141
-0.00610127
-0.00610129
-0.00610169
-0.00610131
-0.00610093
-0.00610094
-0.00610109
-0.00610133
-0.00610164
-0.00610198
-0.00610234
-0.00610269
-0.00610301
-0.00610327
-0.00610347
-0.00610357
-0.00610356
-0.00610346
-0.00610327
-0.006103
-0.0061027
-0.00610236
-0.00610202
-0.00610167
-0.00610137
-0.00610112
-0.00610098
-0.006101
-0.00610139
-0.00610095
-0.00610059
-0.0061006
-0.00610075
-0.006101
-0.0061013
-0.00610165
-0.006102
-0.00610235
-0.00610267
-0.00610293
-0.00610312
-0.00610322
-0.00610321
-0.00610311
-0.00610292
-0.00610266
-0.00610236
-0.00610203
-0.00610169
-0.00610135
-0.00610104
-0.0061008
-0.00610065
-0.00610066
-0.00610104
-0.0061006
-0.00610024
-0.00610025
-0.00610041
-0.00610066
-0.00610097
-0.00610131
-0.00610167
-0.00610201
-0.00610233
-0.00610259
-0.00610277
-0.00610286
-0.00610286
-0.00610275
-0.00610256
-0.00610231
-0.00610202
-0.00610169
-0.00610134
-0.006101
-0.00610069
-0.00610045
-0.0061003
-0.0061003
-0.00610067
-0.00610026
-0.00609991
-0.00609993
-0.00610009
-0.00610034
-0.00610065
-0.006101
-0.00610135
-0.00610169
-0.006102
-0.00610226
-0.00610243
-0.00610252
-0.00610251
-0.0061024
-0.00610222
-0.00610197
-0.00610167
-0.00610135
-0.006101
-0.00610066
-0.00610035
-0.0061001
-0.00609995
-0.00609995
-0.0061003
-0.00609997
-0.00609963
-0.00609965
-0.00609982
-0.00610007
-0.00610038
-0.00610072
-0.00610107
-0.00610141
-0.00610171
-0.00610196
-0.00610213
-0.00610221
-0.0061022
-0.00610209
-0.00610191
-0.00610166
-0.00610137
-0.00610104
-0.00610069
-0.00610035
-0.00610003
-0.00609979
-0.00609963
-0.00609963
-0.00609999
-0.00609974
-0.0060994
-0.00609943
-0.0060996
-0.00609986
-0.00610017
-0.00610051
-0.00610086
-0.00610119
-0.00610148
-0.00610172
-0.00610188
-0.00610196
-0.00610195
-0.00610184
-0.00610166
-0.00610141
-0.00610112
-0.0061008
-0.00610045
-0.0061001
-0.00609979
-0.00609954
-0.00609938
-0.00609939
-0.00609975
-0.00609958
-0.00609926
-0.0060993
-0.00609947
-0.00609972
-0.00610003
-0.00610037
-0.00610071
-0.00610104
-0.00610133
-0.00610157
-0.00610173
-0.00610181
-0.0061018
-0.00610169
-0.00610151
-0.00610127
-0.00610098
-0.00610065
-0.0061003
-0.00609995
-0.00609963
-0.00609938
-0.00609924
-0.00609925
-0.00609962
-0.00609951
-0.00609925
-0.0060993
-0.00609947
-0.00609973
-0.00610003
-0.00610037
-0.00610071
-0.00610103
-0.00610132
-0.00610156
-0.00610173
-0.00610182
-0.00610181
-0.00610171
-0.00610153
-0.00610129
-0.006101
-0.00610066
-0.0061003
-0.00609995
-0.00609963
-0.00609939
-0.00609925
-0.00609927
-0.00609957
-0.00609961
-0.00609954
-0.00609964
-0.00609982
-0.00610008
-0.00610039
-0.00610072
-0.00610107
-0.0061014
-0.0061017
-0.00610195
-0.00610213
-0.00610223
-0.00610222
-0.00610212
-0.00610194
-0.00610169
-0.00610139
-0.00610104
-0.00610067
-0.0061003
-0.00609999
-0.00609975
-0.00609962
-0.00609957
-0.00609965
-0.010165
-0.0101648
-0.0101649
-0.0101651
-0.0101656
-0.0101661
-0.0101667
-0.0101674
-0.0101681
-0.0101687
-0.0101692
-0.0101696
-0.0101698
-0.0101698
-0.0101696
-0.0101692
-0.0101687
-0.0101681
-0.0101674
-0.0101668
-0.0101662
-0.0101656
-0.0101652
-0.010165
-0.0101649
-0.0101651
-0.0101648
-0.0101643
-0.0101643
-0.0101645
-0.0101649
-0.0101654
-0.0101661
-0.0101668
-0.0101674
-0.010168
-0.0101685
-0.0101689
-0.0101691
-0.0101691
-0.0101689
-0.0101685
-0.010168
-0.0101674
-0.0101668
-0.0101661
-0.0101655
-0.010165
-0.0101646
-0.0101644
-0.0101644
-0.0101649
-0.0101649
-0.0101643
-0.0101642
-0.0101645
-0.0101649
-0.0101654
-0.010166
-0.0101667
-0.0101674
-0.010168
-0.0101685
-0.0101689
-0.010169
-0.010169
-0.0101688
-0.0101685
-0.010168
-0.0101674
-0.0101668
-0.0101661
-0.0101655
-0.010165
-0.0101646
-0.0101643
-0.0101644
-0.010165
-0.0101651
-0.0101645
-0.0101645
-0.0101647
-0.0101651
-0.0101656
-0.0101663
-0.010167
-0.0101676
-0.0101682
-0.0101687
-0.0101691
-0.0101693
-0.0101693
-0.0101691
-0.0101687
-0.0101683
-0.0101677
-0.010167
-0.0101663
-0.0101657
-0.0101652
-0.0101648
-0.0101646
-0.0101646
-0.0101653
-0.0101656
-0.0101649
-0.0101649
-0.0101651
-0.0101655
-0.010166
-0.0101667
-0.0101674
-0.0101681
-0.0101687
-0.0101692
-0.0101695
-0.0101697
-0.0101697
-0.0101695
-0.0101692
-0.0101687
-0.0101681
-0.0101674
-0.0101668
-0.0101661
-0.0101656
-0.0101652
-0.010165
-0.0101651
-0.0101657
-0.0101661
-0.0101654
-0.0101654
-0.0101656
-0.010166
-0.0101666
-0.0101672
-0.0101679
-0.0101686
-0.0101692
-0.0101697
-0.0101701
-0.0101703
-0.0101703
-0.0101701
-0.0101698
-0.0101693
-0.0101687
-0.010168
-0.0101673
-0.0101667
-0.0101662
-0.0101658
-0.0101655
-0.0101656
-0.0101663
-0.0101667
-0.0101661
-0.010166
-0.0101663
-0.0101667
-0.0101672
-0.0101679
-0.0101686
-0.0101693
-0.0101699
-0.0101704
-0.0101708
-0.010171
-0.010171
-0.0101708
-0.0101704
-0.0101699
-0.0101693
-0.0101686
-0.010168
-0.0101673
-0.0101668
-0.0101664
-0.0101662
-0.0101662
-0.0101669
-0.0101674
-0.0101668
-0.0101667
-0.010167
-0.0101674
-0.0101679
-0.0101686
-0.0101693
-0.01017
-0.0101706
-0.0101711
-0.0101715
-0.0101717
-0.0101717
-0.0101715
-0.0101711
-0.0101706
-0.01017
-0.0101693
-0.0101686
-0.010168
-0.0101675
-0.0101671
-0.0101668
-0.0101669
-0.0101675
-0.0101681
-0.0101674
-0.0101674
-0.0101676
-0.0101681
-0.0101686
-0.0101693
-0.01017
-0.0101707
-0.0101713
-0.0101718
-0.0101722
-0.0101724
-0.0101724
-0.0101722
-0.0101718
-0.0101713
-0.0101707
-0.01017
-0.0101693
-0.0101687
-0.0101681
-0.0101677
-0.0101675
-0.0101675
-0.0101682
-0.0101687
-0.010168
-0.010168
-0.0101682
-0.0101687
-0.0101692
-0.0101699
-0.0101706
-0.0101713
-0.0101719
-0.0101725
-0.0101728
-0.010173
-0.0101731
-0.0101729
-0.0101725
-0.010172
-0.0101713
-0.0101706
-0.0101699
-0.0101693
-0.0101687
-0.0101683
-0.0101681
-0.0101681
-0.0101688
-0.0101692
-0.0101685
-0.0101685
-0.0101687
-0.0101692
-0.0101697
-0.0101704
-0.0101711
-0.0101718
-0.0101725
-0.010173
-0.0101734
-0.0101736
-0.0101736
-0.0101734
-0.010173
-0.0101725
-0.0101719
-0.0101712
-0.0101705
-0.0101698
-0.0101692
-0.0101688
-0.0101686
-0.0101686
-0.0101693
-0.0101696
-0.0101689
-0.0101689
-0.0101691
-0.0101695
-0.0101701
-0.0101708
-0.0101715
-0.0101722
-0.0101728
-0.0101734
-0.0101738
-0.010174
-0.010174
-0.0101738
-0.0101734
-0.0101729
-0.0101723
-0.0101716
-0.0101708
-0.0101702
-0.0101696
-0.0101692
-0.0101689
-0.0101689
-0.0101696
-0.0101698
-0.0101691
-0.010169
-0.0101693
-0.0101697
-0.0101703
-0.010171
-0.0101717
-0.0101724
-0.010173
-0.0101736
-0.010174
-0.0101742
-0.0101742
-0.010174
-0.0101736
-0.0101731
-0.0101725
-0.0101718
-0.010171
-0.0101704
-0.0101698
-0.0101694
-0.0101691
-0.0101691
-0.0101698
-0.0101698
-0.0101691
-0.010169
-0.0101693
-0.0101697
-0.0101703
-0.010171
-0.0101717
-0.0101724
-0.0101731
-0.0101736
-0.010174
-0.0101742
-0.0101742
-0.010174
-0.0101736
-0.0101731
-0.0101724
-0.0101717
-0.010171
-0.0101704
-0.0101698
-0.0101694
-0.0101691
-0.0101691
-0.0101698
-0.0101696
-0.0101689
-0.0101688
-0.0101691
-0.0101695
-0.0101701
-0.0101708
-0.0101715
-0.0101722
-0.0101729
-0.0101734
-0.0101738
-0.010174
-0.010174
-0.0101738
-0.0101734
-0.0101729
-0.0101722
-0.0101715
-0.0101708
-0.0101702
-0.0101696
-0.0101692
-0.0101689
-0.010169
-0.0101697
-0.0101692
-0.0101685
-0.0101685
-0.0101687
-0.0101692
-0.0101698
-0.0101704
-0.0101711
-0.0101718
-0.0101725
-0.010173
-0.0101734
-0.0101736
-0.0101736
-0.0101734
-0.010173
-0.0101725
-0.0101719
-0.0101712
-0.0101705
-0.0101698
-0.0101692
-0.0101688
-0.0101686
-0.0101686
-0.0101693
-0.0101687
-0.010168
-0.010168
-0.0101683
-0.0101687
-0.0101693
-0.0101699
-0.0101706
-0.0101713
-0.010172
-0.0101725
-0.0101729
-0.0101731
-0.0101731
-0.0101729
-0.0101725
-0.010172
-0.0101713
-0.0101706
-0.01017
-0.0101693
-0.0101687
-0.0101683
-0.0101681
-0.0101681
-0.0101688
-0.0101681
-0.0101674
-0.0101674
-0.0101677
-0.0101681
-0.0101687
-0.0101693
-0.01017
-0.0101707
-0.0101713
-0.0101719
-0.0101723
-0.0101725
-0.0101724
-0.0101722
-0.0101719
-0.0101713
-0.0101707
-0.01017
-0.0101693
-0.0101687
-0.0101681
-0.0101677
-0.0101675
-0.0101675
-0.0101682
-0.0101674
-0.0101668
-0.0101668
-0.010167
-0.0101674
-0.010168
-0.0101686
-0.0101693
-0.01017
-0.0101706
-0.0101712
-0.0101716
-0.0101718
-0.0101717
-0.0101715
-0.0101712
-0.0101706
-0.01017
-0.0101694
-0.0101687
-0.010168
-0.0101675
-0.0101671
-0.0101669
-0.0101669
-0.0101676
-0.0101668
-0.0101661
-0.0101661
-0.0101663
-0.0101668
-0.0101673
-0.010168
-0.0101686
-0.0101693
-0.0101699
-0.0101705
-0.0101708
-0.010171
-0.010171
-0.0101708
-0.0101705
-0.01017
-0.0101693
-0.0101687
-0.010168
-0.0101674
-0.0101668
-0.0101664
-0.0101662
-0.0101662
-0.0101669
-0.0101662
-0.0101655
-0.0101655
-0.0101657
-0.0101661
-0.0101667
-0.0101673
-0.010168
-0.0101687
-0.0101693
-0.0101698
-0.0101702
-0.0101704
-0.0101704
-0.0101702
-0.0101698
-0.0101693
-0.0101687
-0.010168
-0.0101674
-0.0101667
-0.0101662
-0.0101658
-0.0101656
-0.0101656
-0.0101663
-0.0101656
-0.010165
-0.010165
-0.0101652
-0.0101656
-0.0101662
-0.0101668
-0.0101675
-0.0101681
-0.0101687
-0.0101692
-0.0101696
-0.0101698
-0.0101698
-0.0101696
-0.0101692
-0.0101687
-0.0101681
-0.0101675
-0.0101668
-0.0101662
-0.0101657
-0.0101653
-0.010165
-0.0101651
-0.0101657
-0.0101652
-0.0101646
-0.0101646
-0.0101648
-0.0101652
-0.0101658
-0.0101664
-0.0101671
-0.0101677
-0.0101683
-0.0101688
-0.0101692
-0.0101694
-0.0101694
-0.0101692
-0.0101688
-0.0101683
-0.0101677
-0.0101671
-0.0101664
-0.0101658
-0.0101653
-0.0101649
-0.0101646
-0.0101647
-0.0101653
-0.010165
-0.0101644
-0.0101643
-0.0101646
-0.010165
-0.0101655
-0.0101662
-0.0101668
-0.0101675
-0.0101681
-0.0101686
-0.0101689
-0.0101691
-0.0101691
-0.0101689
-0.0101686
-0.0101681
-0.0101675
-0.0101669
-0.0101662
-0.0101656
-0.010165
-0.0101646
-0.0101644
-0.0101644
-0.0101651
-0.0101649
-0.0101644
-0.0101644
-0.0101646
-0.0101651
-0.0101656
-0.0101662
-0.0101669
-0.0101675
-0.0101681
-0.0101686
-0.0101689
-0.0101691
-0.0101691
-0.010169
-0.0101686
-0.0101681
-0.0101675
-0.0101669
-0.0101662
-0.0101656
-0.0101651
-0.0101647
-0.0101644
-0.0101645
-0.010165
-0.0101651
-0.0101649
-0.010165
-0.0101653
-0.0101657
-0.0101663
-0.0101669
-0.0101675
-0.0101682
-0.0101688
-0.0101693
-0.0101696
-0.0101698
-0.0101698
-0.0101697
-0.0101693
-0.0101688
-0.0101682
-0.0101676
-0.0101669
-0.0101663
-0.0101657
-0.0101653
-0.0101651
-0.010165
-0.0101652
-0.01423
-0.0142297
-0.0142298
-0.0142302
-0.0142308
-0.0142316
-0.0142326
-0.0142336
-0.0142347
-0.0142356
-0.0142364
-0.0142369
-0.0142372
-0.0142372
-0.0142369
-0.0142363
-0.0142356
-0.0142346
-0.0142336
-0.0142326
-0.0142316
-0.0142308
-0.0142302
-0.0142298
-0.0142297
-0.0142301
-0.0142297
-0.0142289
-0.0142288
-0.0142292
-0.0142298
-0.0142306
-0.0142316
-0.0142326
-0.0142336
-0.0142346
-0.0142353
-0.0142359
-0.0142361
-0.0142361
-0.0142358
-0.0142353
-0.0142345
-0.0142336
-0.0142326
-0.0142316
-0.0142306
-0.0142298
-0.0142292
-0.0142289
-0.0142289
-0.0142298
-0.0142298
-0.0142288
-0.0142288
-0.0142291
-0.0142298
-0.0142306
-0.0142315
-0.0142326
-0.0142336
-0.0142345
-0.0142353
-0.0142358
-0.0142361
-0.0142361
-0.0142358
-0.0142353
-0.0142345
-0.0142336
-0.0142326
-0.0142316
-0.0142306
-0.0142298
-0.0142292
-0.0142289
-0.0142289
-0.0142299
-0.0142302
-0.0142292
-0.0142291
-0.0142295
-0.0142301
-0.0142309
-0.0142319
-0.0142329
-0.0142339
-0.0142349
-0.0142356
-0.0142362
-0.0142365
-0.0142365
-0.0142362
-0.0142356
-0.0142349
-0.0142339
-0.0142329
-0.0142319
-0.0142309
-0.0142301
-0.0142295
-0.0142292
-0.0142293
-0.0142303
-0.0142308
-0.0142298
-0.0142298
-0.0142301
-0.0142307
-0.0142315
-0.0142325
-0.0142335
-0.0142346
-0.0142355
-0.0142363
-0.0142369
-0.0142372
-0.0142372
-0.0142369
-0.0142363
-0.0142355
-0.0142346
-0.0142336
-0.0142325
-0.0142316
-0.0142308
-0.0142302
-0.0142298
-0.0142299
-0.0142309
-0.0142316
-0.0142306
-0.0142306
-0.0142309
-0.0142315
-0.0142324
-0.0142333
-0.0142344
-0.0142355
-0.0142364
-0.0142372
-0.0142378
-0.0142381
-0.0142381
-0.0142378
-0.0142372
-0.0142364
-0.0142355
-0.0142344
-0.0142334
-0.0142324
-0.0142316
-0.014231
-0.0142306
-0.0142307
-0.0142317
-0.0142326
-0.0142316
-0.0142315
-0.0142319
-0.0142325
-0.0142333
-0.0142343
-0.0142354
-0.0142365
-0.0142374
-0.0142382
-0.0142388
-0.0142391
-0.0142391
-0.0142388
-0.0142383
-0.0142375
-0.0142365
-0.0142354
-0.0142344
-0.0142334
-0.0142325
-0.0142319
-0.0142316
-0.0142316
-0.0142327
-0.0142336
-0.0142326
-0.0142326
-0.0142329
-0.0142335
-0.0142344
-0.0142354
-0.0142365
-0.0142376
-0.0142385
-0.0142394
-0.0142399
-0.0142402
-0.0142402
-0.0142399
-0.0142394
-0.0142386
-0.0142376
-0.0142365
-0.0142354
-0.0142344
-0.0142336
-0.0142329
-0.0142326
-0.0142326
-0.0142337
-0.0142347
-0.0142336
-0.0142336
-0.0142339
-0.0142346
-0.0142355
-0.0142365
-0.0142376
-0.0142387
-0.0142396
-0.0142405
-0.014241
-0.0142414
-0.0142414
-0.0142411
-0.0142405
-0.0142397
-0.0142387
-0.0142376
-0.0142365
-0.0142355
-0.0142346
-0.014234
-0.0142336
-0.0142337
-0.0142347
-0.0142356
-0.0142346
-0.0142345
-0.0142349
-0.0142355
-0.0142364
-0.0142374
-0.0142385
-0.0142396
-0.0142406
-0.0142415
-0.0142421
-0.0142424
-0.0142424
-0.0142421
-0.0142415
-0.0142407
-0.0142397
-0.0142386
-0.0142375
-0.0142364
-0.0142356
-0.0142349
-0.0142346
-0.0142346
-0.0142356
-0.0142364
-0.0142353
-0.0142353
-0.0142356
-0.0142363
-0.0142372
-0.0142382
-0.0142394
-0.0142405
-0.0142415
-0.0142423
-0.0142429
-0.0142432
-0.0142432
-0.0142429
-0.0142423
-0.0142415
-0.0142405
-0.0142394
-0.0142383
-0.0142372
-0.0142364
-0.0142357
-0.0142353
-0.0142354
-0.0142364
-0.0142369
-0.0142359
-0.0142358
-0.0142362
-0.0142369
-0.0142378
-0.0142388
-0.0142399
-0.014241
-0.0142421
-0.0142429
-0.0142435
-0.0142438
-0.0142438
-0.0142435
-0.0142429
-0.0142421
-0.0142411
-0.01424
-0.0142389
-0.0142378
-0.0142369
-0.0142363
-0.0142359
-0.014236
-0.014237
-0.0142372
-0.0142361
-0.0142361
-0.0142365
-0.0142372
-0.0142381
-0.0142391
-0.0142402
-0.0142414
-0.0142424
-0.0142432
-0.0142438
-0.0142441
-0.0142442
-0.0142439
-0.0142433
-0.0142424
-0.0142414
-0.0142403
-0.0142392
-0.0142381
-0.0142372
-0.0142366
-0.0142362
-0.0142363
-0.0142373
-0.0142372
-0.0142361
-0.0142361
-0.0142365
-0.0142372
-0.0142381
-0.0142391
-0.0142402
-0.0142414
-0.0142424
-0.0142432
-0.0142438
-0.0142442
-0.0142442
-0.0142439
-0.0142433
-0.0142424
-0.0142414
-0.0142403
-0.0142392
-0.0142381
-0.0142373
-0.0142366
-0.0142362
-0.0142363
-0.0142373
-0.0142369
-0.0142358
-0.0142358
-0.0142362
-0.0142369
-0.0142378
-0.0142388
-0.0142399
-0.0142411
-0.0142421
-0.0142429
-0.0142435
-0.0142439
-0.0142439
-0.0142436
-0.0142429
-0.0142421
-0.0142411
-0.01424
-0.0142389
-0.0142378
-0.014237
-0.0142363
-0.014236
-0.014236
-0.014237
-0.0142363
-0.0142353
-0.0142353
-0.0142356
-0.0142363
-0.0142372
-0.0142383
-0.0142394
-0.0142405
-0.0142415
-0.0142423
-0.0142429
-0.0142433
-0.0142433
-0.0142429
-0.0142423
-0.0142415
-0.0142405
-0.0142394
-0.0142383
-0.0142373
-0.0142364
-0.0142358
-0.0142354
-0.0142354
-0.0142365
-0.0142356
-0.0142345
-0.0142345
-0.0142349
-0.0142355
-0.0142364
-0.0142375
-0.0142386
-0.0142397
-0.0142407
-0.0142415
-0.0142421
-0.0142424
-0.0142424
-0.0142421
-0.0142415
-0.0142407
-0.0142397
-0.0142386
-0.0142375
-0.0142365
-0.0142356
-0.014235
-0.0142346
-0.0142347
-0.0142357
-0.0142346
-0.0142336
-0.0142336
-0.0142339
-0.0142346
-0.0142355
-0.0142365
-0.0142376
-0.0142387
-0.0142397
-0.0142405
-0.0142411
-0.0142414
-0.0142414
-0.0142411
-0.0142405
-0.0142397
-0.0142387
-0.0142376
-0.0142365
-0.0142355
-0.0142347
-0.0142341
-0.0142337
-0.0142337
-0.0142348
-0.0142336
-0.0142326
-0.0142326
-0.0142329
-0.0142336
-0.0142344
-0.0142354
-0.0142365
-0.0142376
-0.0142386
-0.0142394
-0.01424
-0.0142403
-0.0142403
-0.01424
-0.0142394
-0.0142386
-0.0142376
-0.0142366
-0.0142355
-0.0142345
-0.0142337
-0.014233
-0.0142327
-0.0142327
-0.0142337
-0.0142326
-0.0142316
-0.0142316
-0.0142319
-0.0142325
-0.0142334
-0.0142344
-0.0142354
-0.0142365
-0.0142375
-0.0142383
-0.0142389
-0.0142392
-0.0142392
-0.0142389
-0.0142383
-0.0142375
-0.0142365
-0.0142355
-0.0142344
-0.0142335
-0.0142326
-0.014232
-0.0142317
-0.0142317
-0.0142327
-0.0142316
-0.0142306
-0.0142306
-0.0142309
-0.0142316
-0.0142324
-0.0142334
-0.0142344
-0.0142355
-0.0142364
-0.0142372
-0.0142378
-0.0142381
-0.0142381
-0.0142378
-0.0142373
-0.0142365