/*--------------------------------*- C++ -*----------------------------------*\
  =========                 |
  \\      /  F ield         | OpenFOAM: The Open Source CFD Toolbox
   \\    /   O peration     | Website:  https://openfoam.org
    \\  /    A nd           | Version:  7
     \\/     M anipulation  |
\*---------------------------------------------------------------------------*/
FoamFile
{
    version     2.0;
    format      ascii;
    class       surfaceScalarField;
    location    "0.4";
    object      phi;
}
// * * * * * * * * * * * * * * * * * * * * * * * * * * * * * * * * * * * * * //

dimensions      [0 3 -1 0 0 0 0];

internalField   nonuniform List<scalar> 
91004
(
3.85123e-09
3.85123e-09
0.000224784
6.97247e-09
7.18621e-09
0.000446601
9.18581e-09
8.04942e-09
0.000515521
1.09965e-08
8.19449e-09
0.000530893
1.24064e-08
8.2136e-09
0.000533573
1.32414e-08
8.22352e-09
0.000533971
1.33574e-08
8.24414e-09
0.000534038
1.26872e-08
8.28086e-09
0.000534064
1.12369e-08
8.33401e-09
0.000534085
9.0738e-09
8.39893e-09
0.000534103
6.31487e-09
8.46662e-09
0.000534118
3.11618e-09
8.5259e-09
0.000534129
-3.36738e-10
8.56598e-09
0.000534134
-3.8376e-09
8.5788e-09
0.000534134
-7.17058e-09
8.56209e-09
0.000534128
-1.01213e-08
8.51912e-09
0.000534118
-1.24917e-08
8.45855e-09
0.000534103
-1.41174e-08
8.39231e-09
0.000534085
-1.4887e-08
8.33304e-09
0.000534064
-1.4764e-08
8.29083e-09
0.000534039
-1.38066e-08
8.27003e-09
0.000533972
-1.21759e-08
8.26605e-09
0.000533575
-1.00848e-08
8.25503e-09
0.000530894
-7.57602e-09
8.11775e-09
0.000515523
-4.14549e-09
7.2774e-09
0.000446602
3.99134e-09
0.000224785
7.18621e-09
6.97247e-09
0.000446601
1.33184e-08
1.33184e-08
0.000910864
1.73921e-08
1.50227e-08
0.00105752
2.05267e-08
1.53695e-08
0.00109051
2.2895e-08
1.54782e-08
0.0010963
2.42345e-08
1.55879e-08
0.00109716
2.43001e-08
1.57363e-08
0.0010973
2.29777e-08
1.5925e-08
0.00109736
2.0283e-08
1.61444e-08
0.0010974
1.6335e-08
1.63762e-08
0.00109743
1.13346e-08
1.65956e-08
0.00109746
5.54633e-09
1.67748e-08
0.00109749
-7.15267e-10
1.68881e-08
0.0010975
-7.0967e-09
1.69159e-08
0.0010975
-1.32189e-08
1.68514e-08
0.00109748
-1.8695e-08
1.67002e-08
0.00109746
-2.31557e-08
1.64814e-08
0.00109743
-2.62827e-08
1.62242e-08
0.0010974
-2.78499e-08
1.59633e-08
0.00109736
-2.77695e-08
1.57315e-08
0.0010973
-2.61356e-08
1.5553e-08
0.00109716
-2.3238e-08
1.54339e-08
0.0010963
-1.94387e-08
1.53337e-08
0.00109051
-1.46806e-08
1.50108e-08
0.00105752
-7.84451e-09
1.33659e-08
0.000910868
7.10366e-09
0.000446602
8.04942e-09
9.18581e-09
0.000515521
1.50227e-08
1.73921e-08
0.00105752
1.96049e-08
1.96049e-08
0.00122958
2.30786e-08
2.01094e-08
0.00126842
2.56843e-08
2.03267e-08
0.00127525
2.71482e-08
2.05655e-08
0.00127627
2.72012e-08
2.08713e-08
0.00127644
2.57151e-08
2.12373e-08
0.0012765
2.27034e-08
2.16414e-08
0.00127655
1.82932e-08
2.20508e-08
0.00127659
1.27011e-08
2.2425e-08
0.00127663
6.21514e-09
2.27216e-08
0.00127665
-8.18107e-10
2.29019e-08
0.00127667
-8.00603e-09
2.29379e-08
0.00127667
-1.49206e-08
2.28206e-08
0.00127665
-2.1121e-08
2.25596e-08
0.00127663
-2.61827e-08
2.21846e-08
0.00127659
-2.97379e-08
2.17419e-08
0.00127655
-3.15251e-08
2.12862e-08
0.0012765
-3.14443e-08
2.08719e-08
0.00127644
-2.9606e-08
2.05411e-08
0.00127627
-2.63453e-08
2.03102e-08
0.00127526
-2.20706e-08
2.0129e-08
0.00126843
-1.66848e-08
1.96762e-08
0.00122959
-8.87837e-09
1.75216e-08
0.00105752
9.32887e-09
0.000515523
8.19449e-09
1.09965e-08
0.000530893
1.53695e-08
2.05267e-08
0.00109051
2.01094e-08
2.30786e-08
0.00126842
2.37122e-08
2.37122e-08
0.00130862
2.64264e-08
2.40442e-08
0.0013157
2.79719e-08
2.44192e-08
0.00131675
2.80688e-08
2.48833e-08
0.00131693
2.65788e-08
2.54216e-08
0.00131699
2.35071e-08
2.59994e-08
0.00131704
1.89768e-08
2.65702e-08
0.00131709
1.32051e-08
2.70802e-08
0.00131712
6.4873e-09
2.74751e-08
0.00131715
-8.15182e-10
2.77079e-08
0.00131716
-8.29007e-09
2.77469e-08
0.00131716
-1.54829e-08
2.75851e-08
0.00131715
-2.19257e-08
2.72393e-08
0.00131712
-2.71691e-08
2.67512e-08
0.00131709
-3.08269e-08
2.6182e-08
0.00131704
-3.26303e-08
2.56023e-08
0.001317
-3.24846e-08
2.50799e-08
0.00131693
-3.05199e-08
2.46662e-08
0.00131676
-2.71009e-08
2.43798e-08
0.0013157
-2.26654e-08
2.41584e-08
0.00130863
-1.71187e-08
2.36171e-08
0.00126843
-9.09654e-09
2.10607e-08
0.00109052
1.12794e-08
0.000530895
8.2136e-09
1.24064e-08
0.000533573
1.54782e-08
2.2895e-08
0.0010963
2.03267e-08
2.56843e-08
0.00127525
2.40442e-08
2.64264e-08
0.0013157
2.68689e-08
2.68689e-08
0.00132282
2.85108e-08
2.73744e-08
0.00132388
2.86775e-08
2.79849e-08
0.00132406
2.72184e-08
2.86765e-08
0.00132412
2.41285e-08
2.94036e-08
0.00132418
1.95241e-08
3.01081e-08
0.00132422
1.36227e-08
3.0726e-08
0.00132426
6.72733e-09
3.11952e-08
0.00132428
-7.84158e-10
3.14649e-08
0.00132429
-8.47865e-09
3.15047e-08
0.00132429
-1.58743e-08
3.13129e-08
0.00132428
-2.24786e-08
3.09158e-08
0.00132426
-2.78219e-08
3.03669e-08
0.00132422
-3.15073e-08
2.97393e-08
0.00132418
-3.32669e-08
2.91133e-08
0.00132413
-3.30203e-08
2.85623e-08
0.00132406
-3.0922e-08
2.81383e-08
0.00132389
-2.73671e-08
2.78546e-08
0.00132283
-2.28212e-08
2.76338e-08
0.0013157
-1.72022e-08
2.70334e-08
0.00127526
-9.12665e-09
2.41228e-08
0.0010963
1.29497e-08
0.000533576
8.22352e-09
1.32414e-08
0.000533971
1.55879e-08
2.42345e-08
0.00109716
2.05655e-08
2.71482e-08
0.00127627
2.44192e-08
2.79719e-08
0.00131675
2.73744e-08
2.85108e-08
0.00132388
2.91282e-08
2.91282e-08
0.00132495
2.93742e-08
2.98595e-08
0.00132512
2.79477e-08
3.06719e-08
0.00132519
2.48325e-08
3.15108e-08
0.00132524
2.01395e-08
3.23101e-08
0.00132529
1.40885e-08
3.29991e-08
0.00132532
6.99404e-09
3.35127e-08
0.00132535
-7.45445e-10
3.38009e-08
0.00132536
-8.67161e-09
3.38386e-08
0.00132536
-1.62727e-08
3.3632e-08
0.00132535
-2.303e-08
3.32174e-08
0.00132532
-2.84554e-08
3.26584e-08
0.00132529
-3.21442e-08
3.20356e-08
0.00132524
-3.38354e-08
3.14332e-08
0.00132519
-3.34677e-08
3.09225e-08
0.00132513
-3.12243e-08
3.05488e-08
0.00132495
-2.75306e-08
3.03148e-08
0.00132389
-2.28759e-08
3.01267e-08
0.00131676
-1.71885e-08
2.94954e-08
0.00127628
-9.08674e-09
2.6313e-08
0.00109716
1.41124e-08
0.000533974
8.24414e-09
1.33574e-08
0.000534038
1.57363e-08
2.43001e-08
0.0010973
2.08713e-08
2.72012e-08
0.00127644
2.48833e-08
2.80688e-08
0.00131693
2.79849e-08
2.86775e-08
0.00132406
2.98595e-08
2.93742e-08
0.00132512
3.01851e-08
3.01851e-08
0.0013253
2.8783e-08
3.10706e-08
0.00132537
2.56266e-08
3.19701e-08
0.00132542
2.08232e-08
3.28127e-08
0.00132546
1.4598e-08
3.35264e-08
0.0013255
7.28135e-09
3.40474e-08
0.00132552
-7.04543e-10
3.43308e-08
0.00132554
-8.87197e-09
3.43602e-08
0.00132554
-1.66784e-08
3.41505e-08
0.00132552
-2.35792e-08
3.37474e-08
0.0013255
-2.90699e-08
3.32219e-08
0.00132546
-3.27429e-08
3.26572e-08
0.00132542
-3.43488e-08
3.21347e-08
0.00132537
-3.38503e-08
3.17175e-08
0.0013253
-3.14609e-08
3.14382e-08
0.00132513
-2.7634e-08
3.12851e-08
0.00132406
-2.28743e-08
3.115e-08
0.00131693
-1.71141e-08
3.05181e-08
0.00127645
-8.99403e-09
2.72019e-08
0.00109731
1.45497e-08
0.000534041
8.28086e-09
1.26872e-08
0.000534064
1.5925e-08
2.29777e-08
0.00109736
2.12373e-08
2.57151e-08
0.0012765
2.54216e-08
2.65788e-08
0.00131699
2.86765e-08
2.72184e-08
0.00132412
3.06719e-08
2.79477e-08
0.00132519
3.10706e-08
2.8783e-08
0.00132537
2.96804e-08
2.96804e-08
0.00132543
2.6466e-08
3.0577e-08
0.00132548
2.15339e-08
3.14023e-08
0.00132553
1.51182e-08
3.2087e-08
0.00132556
7.56796e-09
3.25733e-08
0.00132559
-6.67915e-10
3.28251e-08
0.0013256
-9.07048e-09
3.2836e-08
0.0013256
-1.70671e-08
3.26298e-08
0.00132559
-2.40898e-08
3.22602e-08
0.00132556
-2.96217e-08
3.1801e-08
0.00132553
-3.32579e-08
3.13335e-08
0.00132548
-3.47656e-08
3.09302e-08
0.00132543
-3.41356e-08
3.06407e-08
0.00132537
-3.16121e-08
3.04806e-08
0.00132519
-2.76707e-08
3.04227e-08
0.00132413
-2.28214e-08
3.03486e-08
0.001317
-1.69916e-08
2.97479e-08
0.00127651
-8.86068e-09
2.64832e-08
0.00109736
1.41167e-08
0.000534066
8.33401e-09
1.12369e-08
0.000534085
1.61444e-08
2.0283e-08
0.0010974
2.16414e-08
2.27034e-08
0.00127655
2.59994e-08
2.35071e-08
0.00131704
2.94036e-08
2.41285e-08
0.00132418
3.15108e-08
2.48325e-08
0.00132524
3.19701e-08
2.56266e-08
0.00132542
3.05771e-08
2.6466e-08
0.00132548
2.72902e-08
2.72902e-08
0.00132554
2.22181e-08
2.80335e-08
0.00132558
1.56067e-08
2.8634e-08
0.00132562
7.82627e-09
2.90433e-08
0.00132564
-6.46609e-10
2.92364e-08
0.00132565
-9.26169e-09
2.92174e-08
0.00132565
-1.7419e-08
2.90178e-08
0.00132564
-2.45308e-08
2.86957e-08
0.00132562
-3.00741e-08
2.83242e-08
0.00132558
-3.36519e-08
2.79769e-08
0.00132554
-3.50537e-08
2.77131e-08
0.00132548
-3.43006e-08
2.75651e-08
0.00132542
-3.16658e-08
2.75299e-08
0.00132524
-2.76405e-08
2.7565e-08
0.00132418
-2.27285e-08
2.75496e-08
0.00131705
-1.68414e-08
2.70128e-08
0.00127656
-8.70673e-09
2.4014e-08
0.0010974
1.2755e-08
0.000534087
8.39893e-09
9.0738e-09
0.000534103
1.63762e-08
1.6335e-08
0.00109743
2.20508e-08
1.82932e-08
0.00127659
2.65702e-08
1.89768e-08
0.00131709
3.01081e-08
1.95241e-08
0.00132422
3.23101e-08
2.01395e-08
0.00132529
3.28127e-08
2.08232e-08
0.00132546
3.14023e-08
2.15339e-08
0.00132553
2.80335e-08
2.22181e-08
0.00132558
2.28194e-08
2.28194e-08
0.00132562
1.60199e-08
2.32867e-08
0.00132566
8.02748e-09
2.35837e-08
0.00132569
-6.53845e-10
2.36967e-08
0.0013257
-9.44465e-09
2.36395e-08
0.0013257
-1.77216e-08
2.34485e-08
0.00132569
-2.48832e-08
2.31826e-08
0.00132566
-3.04057e-08
2.29092e-08
0.00132562
-3.39063e-08
2.269e-08
0.00132558
-3.52006e-08
2.25679e-08
0.00132553
-3.43408e-08
2.25565e-08
0.00132546
-3.1626e-08
2.26347e-08
0.00132529
-2.75557e-08
2.27481e-08
0.00132422
-2.26158e-08
2.27823e-08
0.00131709
-1.66916e-08
2.23421e-08
0.0012766
-8.55749e-09
1.98293e-08
0.00109744
1.04963e-08
0.000534104
8.46662e-09
6.31487e-09
0.000534118
1.65956e-08
1.13346e-08
0.00109746
2.2425e-08
1.27011e-08
0.00127663
2.70802e-08
1.32051e-08
0.00131712
3.0726e-08
1.36227e-08
0.00132426
3.29991e-08
1.40885e-08
0.00132532
3.35264e-08
1.4598e-08
0.0013255
3.2087e-08
1.51182e-08
0.00132556
2.8634e-08
1.56067e-08
0.00132562
2.32867e-08
1.60199e-08
0.00132566
1.632e-08
1.632e-08
0.0013257
8.14788e-09
1.64832e-08
0.00132572
-7.00204e-10
1.65063e-08
0.00132573
-9.61956e-09
1.64103e-08
0.00132573
-1.79689e-08
1.62325e-08
0.00132572
-2.51387e-08
1.60284e-08
0.0013257
-3.06105e-08
1.5855e-08
0.00132566
-3.40203e-08
1.57592e-08
0.00132562
-3.52122e-08
1.57664e-08
0.00132557
-3.42685e-08
1.58722e-08
0.0013255
-3.15097e-08
1.60408e-08
0.00132532
-2.74357e-08
1.6211e-08
0.00132426
-2.25056e-08
1.62841e-08
0.00131713
-1.65693e-08
1.59727e-08
0.00127663
-8.43706e-09
1.41472e-08
0.00109746
7.46295e-09
0.000534118
8.5259e-09
3.11618e-09
0.000534129
1.67748e-08
5.54633e-09
0.00109749
2.27216e-08
6.21514e-09
0.00127665
2.74751e-08
6.4873e-09
0.00131715
3.11952e-08
6.72732e-09
0.00132428
3.35127e-08
6.99403e-09
0.00132535
3.40474e-08
7.28135e-09
0.00132552
3.25733e-08
7.56796e-09
0.00132559
2.90433e-08
7.82627e-09
0.00132564
2.35837e-08
8.02748e-09
0.00132569
1.64832e-08
8.14787e-09
0.00132572
8.17527e-09
8.17527e-09
0.00132575
-7.88912e-10
8.11447e-09
0.00132576
-9.78402e-09
7.98938e-09
0.00132576
-1.81574e-08
7.83456e-09
0.00132575
-2.52969e-08
7.69685e-09
0.00132572
-3.06944e-08
7.61993e-09
0.00132569
-3.40075e-08
7.63432e-09
0.00132564
-3.51086e-08
7.74875e-09
0.00132559
-3.41074e-08
7.94429e-09
0.00132552
-3.13403e-08
8.17585e-09
0.00132535
-2.7301e-08
8.38178e-09
0.00132428
-2.24163e-08
8.48684e-09
0.00131715
-1.64943e-08
8.33419e-09
0.00127665
-8.36341e-09
7.3545e-09
0.00109748
3.86044e-09
0.000534128
8.56598e-09
-3.36739e-10
0.000534134
1.68881e-08
-7.15268e-10
0.0010975
2.29019e-08
-8.18109e-10
0.00127667
2.77079e-08
-8.15184e-10
0.00131716
3.14649e-08
-7.84159e-10
0.00132429
3.38009e-08
-7.45447e-10
0.00132536
3.43308e-08
-7.04544e-10
0.00132554
3.28251e-08
-6.67917e-10
0.0013256
2.92364e-08
-6.4661e-10
0.00132565
2.36967e-08
-6.53846e-10
0.0013257
1.65063e-08
-7.00206e-10
0.00132573
8.11448e-09
-7.88913e-10
0.00132576
-9.11077e-10
-9.11079e-10
0.00132577
-9.92986e-09
-1.0436e-09
0.00132577
-1.82837e-08
-1.1607e-09
0.00132576
-2.53627e-08
-1.22758e-09
0.00132574
-3.06717e-08
-1.21496e-09
0.0013257
-3.38906e-08
-1.10828e-09
0.00132566
-3.49177e-08
-9.12481e-10
0.0013256
-3.38855e-08
-6.55334e-10
0.00132554
-3.11407e-08
-3.84769e-10
0.00132536
-2.71663e-08
-1.5718e-10
0.00132429
-2.23559e-08
-1.88531e-11
0.00131716
-1.64742e-08
1.22301e-11
0.00127666
-8.34512e-09
-2.68985e-11
0.00109749
-4.06255e-11
0.000534133
8.5788e-09
-3.8376e-09
0.000534134
1.69159e-08
-7.0967e-09
0.0010975
2.29379e-08
-8.00603e-09
0.00127667
2.77469e-08
-8.29007e-09
0.00131716
3.15047e-08
-8.47865e-09
0.00132429
3.38386e-08
-8.67161e-09
0.00132536
3.43602e-08
-8.87197e-09
0.00132554
3.2836e-08
-9.07048e-09
0.0013256
2.92174e-08
-9.26169e-09
0.00132565
2.36395e-08
-9.44465e-09
0.0013257
1.64103e-08
-9.61957e-09
0.00132573
7.98938e-09
-9.78402e-09
0.00132576
-1.0436e-09
-9.92987e-09
0.00132577
-1.00417e-08
-1.00417e-08
0.00132577
-1.83428e-08
-1.01023e-08
0.00132576
-2.53435e-08
-1.00923e-08
0.00132574
-3.05618e-08
-9.99833e-09
0.0013257
-3.36972e-08
-9.81837e-09
0.00132566
-3.46698e-08
-9.56574e-09
0.0013256
-3.36292e-08
-9.27102e-09
0.00132554
-3.09276e-08
-8.97827e-09
0.00132536
-2.70359e-08
-8.73339e-09
0.00132429
-2.23173e-08
-8.55277e-09
0.00131716
-1.65006e-08
-8.31525e-09
0.00127666
-8.37961e-09
-7.39487e-09
0.00109749
-3.9306e-09
0.000534133
8.56209e-09
-7.17058e-09
0.000534128
1.68514e-08
-1.32189e-08
0.00109748
2.28206e-08
-1.49206e-08
0.00127665
2.75851e-08
-1.54829e-08
0.00131715
3.13129e-08
-1.58743e-08
0.00132428
3.3632e-08
-1.62727e-08
0.00132535
3.41505e-08
-1.66784e-08
0.00132552
3.26298e-08
-1.70671e-08
0.00132559
2.90178e-08
-1.7419e-08
0.00132564
2.34485e-08
-1.77216e-08
0.00132569
1.62325e-08
-1.79689e-08
0.00132572
7.83456e-09
-1.81574e-08
0.00132575
-1.1607e-09
-1.82837e-08
0.00132576
-1.01023e-08
-1.83428e-08
0.00132576
-1.833e-08
-1.833e-08
0.00132575
-2.52462e-08
-1.82406e-08
0.00132572
-3.03807e-08
-1.80743e-08
0.00132569
-3.34482e-08
-1.78375e-08
0.00132564
-3.43845e-08
-1.75459e-08
0.00132559
-3.33511e-08
-1.72258e-08
0.00132552
-3.07024e-08
-1.69125e-08
0.00132535
-2.68994e-08
-1.66396e-08
0.00132428
-2.22847e-08
-1.63973e-08
0.00131715
-1.65565e-08
-1.59463e-08
0.00127665
-8.45724e-09
-1.41348e-08
0.00109748
-7.49946e-09
0.000534128
8.51912e-09
-1.01213e-08
0.000534118
1.67002e-08
-1.8695e-08
0.00109746
2.25596e-08
-2.1121e-08
0.00127663
2.72393e-08
-2.19257e-08
0.00131712
3.09158e-08
-2.24786e-08
0.00132426
3.32174e-08
-2.30301e-08
0.00132532
3.37474e-08
-2.35792e-08
0.0013255
3.22602e-08
-2.40898e-08
0.00132556
2.86957e-08
-2.45308e-08
0.00132562
2.31826e-08
-2.48832e-08
0.00132566
1.60284e-08
-2.51387e-08
0.0013257
7.69685e-09
-2.52969e-08
0.00132572
-1.22757e-09
-2.53627e-08
0.00132574
-1.00923e-08
-2.53435e-08
0.00132574
-1.82406e-08
-2.52462e-08
0.00132572
-2.50791e-08
-2.50791e-08
0.0013257
-3.01448e-08
-2.48504e-08
0.00132566
-3.31617e-08
-2.4569e-08
0.00132562
-3.40753e-08
-2.42468e-08
0.00132557
-3.30543e-08
-2.39013e-08
0.0013255
-3.04554e-08
-2.35562e-08
0.00132532
-2.67353e-08
-2.32341e-08
0.00132426
-2.22275e-08
-2.29075e-08
0.00131712
-1.66115e-08
-2.22507e-08
0.00127663
-8.55878e-09
-1.96982e-08
0.00109746
-1.0471e-08
0.000534118
8.45855e-09
-1.24917e-08
0.000534103
1.64814e-08
-2.31557e-08
0.00109743
2.21846e-08
-2.61827e-08
0.00127659
2.67512e-08
-2.71691e-08
0.00131709
3.03669e-08
-2.78219e-08
0.00132422
3.26584e-08
-2.84554e-08
0.00132529
3.32219e-08
-2.90699e-08
0.00132546
3.1801e-08
-2.96217e-08
0.00132553
2.83243e-08
-3.00741e-08
0.00132558
2.29092e-08
-3.04057e-08
0.00132562
1.5855e-08
-3.06105e-08
0.00132566
7.61993e-09
-3.06944e-08
0.00132569
-1.21496e-09
-3.06717e-08
0.0013257
-9.99833e-09
-3.05618e-08
0.0013257
-1.80743e-08
-3.03807e-08
0.00132569
-2.48504e-08
-3.01448e-08
0.00132566
-2.9865e-08
-2.9865e-08
0.00132563
-3.28454e-08
-2.95471e-08
0.00132558
-3.37414e-08
-2.91945e-08
0.00132553
-3.2727e-08
-2.88133e-08
0.00132546
-3.01638e-08
-2.84167e-08
0.00132529
-2.65125e-08
-2.80208e-08
0.00132422
-2.21108e-08
-2.75912e-08
0.00131709
-1.66302e-08
-2.67549e-08
0.0012766
-8.65826e-09
-2.36769e-08
0.00109744
-1.26377e-08
0.000534104
8.39231e-09
-1.41174e-08
0.000534085
1.62242e-08
-2.62827e-08
0.0010974
2.17419e-08
-2.97379e-08
0.00127655
2.6182e-08
-3.08269e-08
0.00131704
2.97393e-08
-3.15073e-08
0.00132418
3.20356e-08
-3.21442e-08
0.00132524
3.26572e-08
-3.27429e-08
0.00132542
3.13335e-08
-3.32579e-08
0.00132548
2.79769e-08
-3.36519e-08
0.00132554
2.269e-08
-3.39063e-08
0.00132558
1.57592e-08
-3.40203e-08
0.00132562
7.63432e-09
-3.40075e-08
0.00132564
-1.10828e-09
-3.38906e-08
0.00132566
-9.81837e-09
-3.36972e-08
0.00132566
-1.78375e-08
-3.34482e-08
0.00132564
-2.4569e-08
-3.31617e-08
0.00132562
-2.95471e-08
-3.28454e-08
0.00132558
-3.2497e-08
-3.2497e-08
0.00132554
-3.33703e-08
-3.21095e-08
0.00132549
-3.23472e-08
-3.16786e-08
0.00132542
-2.97992e-08
-3.12113e-08
0.00132525
-2.61999e-08
-3.07237e-08
0.00132418
-2.19015e-08
-3.01866e-08
0.00131705
-1.6576e-08
-2.92184e-08
0.00127655
-8.72465e-09
-2.5866e-08
0.0010974
-1.38857e-08
0.000534087
8.33304e-09
-1.4887e-08
0.000534064
1.59633e-08
-2.78499e-08
0.00109736
2.12862e-08
-3.15251e-08
0.0012765
2.56023e-08
-3.26303e-08
0.001317
2.91133e-08
-3.32669e-08
0.00132413
3.14332e-08
-3.38354e-08
0.00132519
3.21347e-08
-3.43488e-08
0.00132537
3.09302e-08
-3.47656e-08
0.00132543
2.77131e-08
-3.50538e-08
0.00132548
2.25679e-08
-3.52006e-08
0.00132553
1.57664e-08
-3.52122e-08
0.00132557
7.74875e-09
-3.51086e-08
0.00132559
-9.12479e-10
-3.49177e-08
0.0013256
-9.56574e-09
-3.46698e-08
0.0013256
-1.75459e-08
-3.43845e-08
0.00132559
-2.42468e-08
-3.40753e-08
0.00132557
-2.91945e-08
-3.37414e-08
0.00132553
-3.21095e-08
-3.33703e-08
0.00132549
-3.29455e-08
-3.29455e-08
0.00132544
-3.18927e-08
-3.24568e-08
0.00132537
-2.9339e-08
-3.19118e-08
0.00132519
-2.57778e-08
-3.13339e-08
0.00132413
-2.15805e-08
-3.07089e-08
0.001317
-1.64218e-08
-2.96759e-08
0.00127651
-8.72955e-09
-2.62967e-08
0.00109736
-1.42074e-08
0.000534066
8.29083e-09
-1.4764e-08
0.000534039
1.57315e-08
-2.77695e-08
0.0010973
2.08719e-08
-3.14443e-08
0.00127644
2.50799e-08
-3.24846e-08
0.00131693
2.85623e-08
-3.30203e-08
0.00132406
3.09225e-08
-3.34677e-08
0.00132513
3.17175e-08
-3.38503e-08
0.0013253
3.06407e-08
-3.41356e-08
0.00132537
2.75651e-08
-3.43006e-08
0.00132542
2.25565e-08
-3.43408e-08
0.00132546
1.58722e-08
-3.42685e-08
0.0013255
7.94429e-09
-3.41074e-08
0.00132552
-6.55332e-10
-3.38855e-08
0.00132554
-9.27102e-09
-3.36292e-08
0.00132554
-1.72258e-08
-3.33511e-08
0.00132552
-2.39013e-08
-3.30543e-08
0.0013255
-2.88133e-08
-3.2727e-08
0.00132546
-3.16785e-08
-3.23472e-08
0.00132542
-3.24568e-08
-3.18927e-08
0.00132537
-3.13542e-08
-3.13542e-08
0.00132531
-2.87811e-08
-3.07469e-08
0.00132513
-2.52534e-08
-3.01084e-08
0.00132406
-2.11582e-08
-2.94438e-08
0.00131693
-1.6168e-08
-2.84278e-08
0.00127644
-8.66104e-09
-2.52266e-08
0.00109731
-1.36995e-08
0.00053404
8.27003e-09
-1.38066e-08
0.000533972
1.5553e-08
-2.61356e-08
0.00109716
2.05411e-08
-2.9606e-08
0.00127627
2.46662e-08
-3.05199e-08
0.00131676
2.81383e-08
-3.0922e-08
0.00132389
3.05488e-08
-3.12243e-08
0.00132495
3.14382e-08
-3.1461e-08
0.00132513
3.04806e-08
-3.16121e-08
0.00132519
2.75299e-08
-3.16658e-08
0.00132524
2.26347e-08
-3.1626e-08
0.00132529
1.60408e-08
-3.15097e-08
0.00132532
8.17585e-09
-3.13403e-08
0.00132535
-3.84767e-10
-3.11407e-08
0.00132536
-8.97827e-09
-3.09276e-08
0.00132536
-1.69125e-08
-3.07024e-08
0.00132535
-2.35562e-08
-3.04554e-08
0.00132532
-2.84167e-08
-3.01638e-08
0.00132529
-3.12113e-08
-2.97992e-08
0.00132525
-3.19118e-08
-2.9339e-08
0.00132519
-3.07469e-08
-2.87811e-08
0.00132513
-2.8154e-08
-2.8154e-08
0.00132495
-2.46693e-08
-2.75125e-08
0.00132389
-2.06838e-08
-2.68795e-08
0.00131676
-1.58543e-08
-2.59643e-08
0.00127628
-8.53644e-09
-2.30759e-08
0.00109716
-1.2543e-08
0.000533973
8.26605e-09
-1.21759e-08
0.000533575
1.54339e-08
-2.3238e-08
0.0010963
2.03102e-08
-2.63453e-08
0.00127526
2.43798e-08
-2.71009e-08
0.0013157
2.78546e-08
-2.73671e-08
0.00132283
3.03148e-08
-2.75306e-08
0.00132389
3.12852e-08
-2.7634e-08
0.00132406
3.04227e-08
-2.76707e-08
0.00132413
2.7565e-08
-2.76405e-08
0.00132418
2.27481e-08
-2.75557e-08
0.00132422
1.6211e-08
-2.74357e-08
0.00132426
8.38178e-09
-2.7301e-08
0.00132428
-1.57178e-10
-2.71663e-08
0.00132429
-8.73339e-09
-2.70359e-08
0.00132429
-1.66396e-08
-2.68994e-08
0.00132428
-2.32341e-08
-2.67353e-08
0.00132426
-2.80208e-08
-2.65125e-08
0.00132422
-3.07237e-08
-2.61999e-08
0.00132418
-3.13339e-08
-2.57778e-08
0.00132413
-3.01084e-08
-2.52534e-08
0.00132406
-2.75125e-08
-2.46693e-08
0.00132389
-2.40949e-08
-2.40949e-08
0.00132283
-2.02345e-08
-2.35662e-08
0.0013157
-1.55578e-08
-2.28196e-08
0.00127526
-8.40361e-09
-2.03065e-08
0.0010963
-1.09666e-08
0.000533575
8.25503e-09
-1.00848e-08
0.000530894
1.53337e-08
-1.94387e-08
0.00109051
2.0129e-08
-2.20706e-08
0.00126843
2.41584e-08
-2.26654e-08
0.00130863
2.76338e-08
-2.28212e-08
0.0013157
3.01267e-08
-2.28759e-08
0.00131676
3.115e-08
-2.28743e-08
0.00131693
3.03486e-08
-2.28214e-08
0.001317
2.75496e-08
-2.27285e-08
0.00131705
2.27823e-08
-2.26158e-08
0.00131709
1.62841e-08
-2.25056e-08
0.00131713
8.48684e-09
-2.24163e-08
0.00131715
-1.88513e-11
-2.23559e-08
0.00131716
-8.55277e-09
-2.23173e-08
0.00131716
-1.63973e-08
-2.22847e-08
0.00131715
-2.29075e-08
-2.22275e-08
0.00131712
-2.75912e-08
-2.21108e-08
0.00131709
-3.01866e-08
-2.19015e-08
0.00131705
-3.07089e-08
-2.15805e-08
0.001317
-2.94438e-08
-2.11582e-08
0.00131693
-2.68795e-08
-2.06838e-08
0.00131676
-2.35662e-08
-2.02345e-08
0.0013157
-1.9857e-08
-1.9857e-08
0.00130863
-1.53326e-08
-1.93155e-08
0.00126843
-8.31126e-09
-1.7206e-08
0.00109051
-9.16277e-09
0.000530894
8.11775e-09
-7.57602e-09
0.000515523
1.50108e-08
-1.46806e-08
0.00105752
1.96762e-08
-1.66848e-08
0.00122959
2.36171e-08
-1.71187e-08
0.00126843
2.70334e-08
-1.72022e-08
0.00127526
2.94954e-08
-1.71885e-08
0.00127628
3.05181e-08
-1.71141e-08
0.00127645
2.97479e-08
-1.69916e-08
0.00127651
2.70128e-08
-1.68414e-08
0.00127656
2.23421e-08
-1.66916e-08
0.0012766
1.59727e-08
-1.65693e-08
0.00127663
8.3342e-09
-1.64943e-08
0.00127665
1.22315e-11
-1.64742e-08
0.00127666
-8.31525e-09
-1.65006e-08
0.00127666
-1.59463e-08
-1.65565e-08
0.00127665
-2.22507e-08
-1.66115e-08
0.00127663
-2.67549e-08
-1.66302e-08
0.0012766
-2.92184e-08
-1.6576e-08
0.00127655
-2.96759e-08
-1.64218e-08
0.00127651
-2.84278e-08
-1.6168e-08
0.00127644
-2.59643e-08
-1.58543e-08
0.00127628
-2.28196e-08
-1.55578e-08
0.00127526
-1.93155e-08
-1.53326e-08
0.00126843
-1.49986e-08
-1.49986e-08
0.00122959
-8.18449e-09
-1.33985e-08
0.00105752
-7.06257e-09
0.000515522
7.2774e-09
-4.14549e-09
0.000446602
1.33659e-08
-7.84451e-09
0.000910868
1.75216e-08
-8.87837e-09
0.00105752
2.10607e-08
-9.09654e-09
0.00109052
2.41228e-08
-9.12665e-09
0.0010963
2.6313e-08
-9.08674e-09
0.00109716
2.72019e-08
-8.99403e-09
0.00109731
2.64832e-08
-8.86068e-09
0.00109736
2.4014e-08
-8.70673e-09
0.0010974
1.98293e-08
-8.55749e-09
0.00109744
1.41472e-08
-8.43706e-09
0.00109746
7.3545e-09
-8.36341e-09
0.00109748
-2.68972e-11
-8.34512e-09
0.00109749
-7.39486e-09
-8.37961e-09
0.00109749
-1.41348e-08
-8.45724e-09
0.00109748
-1.96982e-08
-8.55878e-09
0.00109746
-2.36769e-08
-8.65826e-09
0.00109744
-2.5866e-08
-8.72465e-09
0.0010974
-2.62967e-08
-8.72955e-09
0.00109736
-2.52266e-08
-8.66104e-09
0.00109731
-2.30759e-08
-8.53644e-09
0.00109716
-2.03065e-08
-8.40361e-09
0.0010963
-1.7206e-08
-8.31126e-09
0.00109051
-1.33985e-08
-8.18449e-09
0.00105752
-7.38362e-09
-7.38362e-09
0.000910866
-3.98936e-09
0.000446601
3.99135e-09
0.000224785
7.10366e-09
0.000446602
9.32887e-09
0.000515523
1.12794e-08
0.000530895
1.29497e-08
0.000533576
1.41124e-08
0.000533974
1.45497e-08
0.000534041
1.41167e-08
0.000534066
1.2755e-08
0.000534087
1.04963e-08
0.000534104
7.46295e-09
0.000534118
3.86044e-09
0.000534128
-4.06248e-11
0.000534133
-3.9306e-09
0.000534133
-7.49946e-09
0.000534128
-1.0471e-08
0.000534118
-1.26377e-08
0.000534104
-1.38857e-08
0.000534087
-1.42074e-08
0.000534066
-1.36995e-08
0.00053404
-1.2543e-08
0.000533973
-1.09666e-08
0.000533575
-9.16277e-09
0.000530894
-7.06257e-09
0.000515522
-3.98936e-09
0.000446601
0.000224784
5.01642e-09
5.01642e-09
0.000224774
1.09718e-08
9.47376e-09
0.000446585
1.60627e-08
1.06595e-08
0.000515505
2.03594e-08
1.08833e-08
0.000530877
2.36902e-08
1.09435e-08
0.000533559
2.57325e-08
1.10059e-08
0.000533958
2.624e-08
1.10923e-08
0.000534026
2.51047e-08
1.11992e-08
0.000534054
2.23555e-08
1.13179e-08
0.000534076
1.81436e-08
1.14364e-08
0.000534096
1.27248e-08
1.15416e-08
0.000534112
6.43924e-09
1.16209e-08
0.000534123
-3.12187e-10
1.1665e-08
0.000534129
-7.0958e-09
1.16704e-08
0.000534129
-1.34683e-08
1.1639e-08
0.000534123
-1.90104e-08
1.15793e-08
0.000534112
-2.33548e-08
1.15038e-08
0.000534096
-2.62134e-08
1.14257e-08
0.000534077
-2.74055e-08
1.13574e-08
0.000534054
-2.68823e-08
1.13079e-08
0.000534027
-2.47475e-08
1.12814e-08
0.000533959
-2.12633e-08
1.12743e-08
0.00053356
-1.67837e-08
1.12552e-08
0.000530879
-1.15055e-08
1.10502e-08
0.000515507
-5.31747e-09
9.85321e-09
0.000446586
5.29231e-09
0.000224774
9.47376e-09
1.09718e-08
0.000446585
2.05927e-08
2.05927e-08
0.000910842
2.95335e-08
2.3131e-08
0.0010575
3.67721e-08
2.36575e-08
0.00109049
4.22639e-08
2.38319e-08
0.00109628
4.55252e-08
2.40079e-08
0.00109714
4.61504e-08
2.42346e-08
0.00109729
4.39647e-08
2.45039e-08
0.00109734
3.9026e-08
2.47951e-08
0.00109739
3.15958e-08
2.50819e-08
0.00109743
2.21069e-08
2.53353e-08
0.00109746
1.11291e-08
2.55273e-08
0.00109748
-6.66536e-10
2.56357e-08
0.00109749
-1.25501e-08
2.5648e-08
0.00109749
-2.37678e-08
2.55638e-08
0.00109748
-3.35951e-08
2.53958e-08
0.00109746
-4.13845e-08
2.51669e-08
0.00109743
-4.66168e-08
2.49063e-08
0.00109739
-4.89547e-08
2.46454e-08
0.00109735
-4.82924e-08
2.44131e-08
0.00109729
-4.47983e-08
2.42311e-08
0.00109715
-3.89221e-08
2.41035e-08
0.00109628
-3.1233e-08
2.39724e-08
0.00109049
-2.18438e-08
2.34778e-08
0.0010575
-1.0178e-08
2.09598e-08
0.000910845
1.12653e-08
0.000446586
1.06595e-08
1.60627e-08
0.000515505
2.3131e-08
2.95335e-08
0.0010575
3.29858e-08
3.29858e-08
0.00122957
4.08836e-08
3.3739e-08
0.0012684
4.68514e-08
3.40371e-08
0.00127524
5.03734e-08
3.43449e-08
0.00127626
5.10044e-08
3.47245e-08
0.00127643
4.85516e-08
3.51616e-08
0.00127649
4.30774e-08
3.56242e-08
0.00127655
3.48661e-08
3.6073e-08
0.00127659
2.43883e-08
3.64654e-08
0.00127663
1.22641e-08
3.6761e-08
0.00127665
-7.73409e-10
3.6927e-08
0.00127667
-1.39243e-08
3.69433e-08
0.00127667
-2.63572e-08
3.68071e-08
0.00127665
-3.72692e-08
3.65337e-08
0.00127663
-4.5938e-08
3.61544e-08
0.00127659
-5.17824e-08
3.57125e-08
0.00127655
-5.44228e-08
3.52571e-08
0.0012765
-5.37401e-08
3.48361e-08
0.00127643
-4.9925e-08
3.44876e-08
0.00127626
-4.34851e-08
3.42254e-08
0.00127524
-3.50501e-08
3.39793e-08
0.00126841
-2.4676e-08
3.32733e-08
0.00122957
-1.15503e-08
2.98531e-08
0.0010575
1.63056e-08
0.000515507
1.08833e-08
2.03594e-08
0.000530877
2.36575e-08
3.67721e-08
0.00109049
3.3739e-08
4.08836e-08
0.0012684
4.18241e-08
4.18241e-08
0.00130861
4.79458e-08
4.22519e-08
0.00131568
5.15728e-08
4.27002e-08
0.00131674
5.22445e-08
4.32352e-08
0.00131692
4.97582e-08
4.38358e-08
0.00131699
4.41721e-08
4.44599e-08
0.00131704
3.57722e-08
4.50567e-08
0.00131709
2.50365e-08
4.55724e-08
0.00131713
1.25993e-08
4.59567e-08
0.00131715
-7.86313e-10
4.61697e-08
0.00131717
-1.42955e-08
4.61872e-08
0.00131717
-2.70687e-08
4.60075e-08
0.00131715
-3.82748e-08
4.56501e-08
0.00131713
-4.7167e-08
4.51554e-08
0.00131709
-5.31459e-08
4.45788e-08
0.00131704
-5.58238e-08
4.39829e-08
0.00131699
-5.50851e-08
4.34284e-08
0.00131692
-5.11374e-08
4.2963e-08
0.00131675
-4.45173e-08
4.26049e-08
0.00131569
-3.5886e-08
4.22728e-08
0.00130861
-2.52952e-08
4.14038e-08
0.00126841
-1.18525e-08
3.72791e-08
0.00109049
2.06282e-08
0.000530879
1.09435e-08
2.36902e-08
0.000533559
2.38319e-08
4.22639e-08
0.00109628
3.40371e-08
4.68514e-08
0.00127524
4.22519e-08
4.79458e-08
0.00131568
4.84964e-08
4.84964e-08
0.00132281
5.22225e-08
4.90772e-08
0.00132387
5.29555e-08
4.97545e-08
0.00132405
5.04821e-08
5.05001e-08
0.00132412
4.48535e-08
5.12628e-08
0.00132417
3.63537e-08
5.19825e-08
0.00132422
2.54648e-08
5.25971e-08
0.00132426
1.28318e-08
5.30497e-08
0.00132429
-7.75103e-10
5.32968e-08
0.0013243
-1.45097e-08
5.33145e-08
0.0013243
-2.74892e-08
5.31045e-08
0.00132429
-3.88608e-08
5.26927e-08
0.00132426
-4.78605e-08
5.2128e-08
0.00132422
-5.38798e-08
5.14752e-08
0.00132418
-5.65312e-08
5.08054e-08
0.00132412
-5.57094e-08
5.01853e-08
0.00132405
-5.16411e-08
4.96653e-08
0.00132388
-4.48885e-08
4.92622e-08
0.00132281
-3.61394e-08
4.88821e-08
0.00131569
-2.54574e-08
4.789e-08
0.00127524
-1.19255e-08
4.31934e-08
0.00109628
2.40734e-08
0.000533561
1.10059e-08
2.57325e-08
0.000533958
2.40079e-08
4.55252e-08
0.00109714
3.43449e-08
5.03734e-08
0.00127626
4.27002e-08
5.15728e-08
0.00131674
4.90772e-08
5.22225e-08
0.00132387
5.29109e-08
5.29109e-08
0.00132494
5.37109e-08
5.36998e-08
0.00132512
5.12518e-08
5.45546e-08
0.00132519
4.55776e-08
5.54172e-08
0.00132524
3.69705e-08
5.62211e-08
0.00132529
2.59182e-08
5.68992e-08
0.00132533
1.30789e-08
5.73923e-08
0.00132536
-7.57851e-10
5.76571e-08
0.00132537
-1.47217e-08
5.76733e-08
0.00132537
-2.7905e-08
5.74476e-08
0.00132535
-3.94326e-08
5.70131e-08
0.00132533
-4.85248e-08
5.64255e-08
0.00132529
-5.45662e-08
5.57552e-08
0.00132524
-5.71734e-08
5.50765e-08
0.00132519
-5.6255e-08
5.44557e-08
0.00132512
-5.20589e-08
5.39399e-08
0.00132494
-4.51719e-08
5.35401e-08
0.00132388
-3.63034e-08
5.31504e-08
0.00131675
-2.55301e-08
5.20849e-08
0.00127626
-1.19377e-08
4.7005e-08
0.00109715
2.62831e-08
0.00053396
1.10923e-08
2.624e-08
0.000534026
2.42346e-08
4.61504e-08
0.00109729
3.47245e-08
5.10044e-08
0.00127643
4.32352e-08
5.22445e-08
0.00131692
4.97545e-08
5.29555e-08
0.00132405
5.36998e-08
5.37109e-08
0.00132512
5.45648e-08
5.45648e-08
0.0013253