/*--------------------------------*- C++ -*----------------------------------*\
  =========                 |
  \\      /  F ield         | OpenFOAM: The Open Source CFD Toolbox
   \\    /   O peration     | Website:  https://openfoam.org
    \\  /    A nd           | Version:  7
     \\/     M anipulation  |
\*---------------------------------------------------------------------------*/
FoamFile
{
    version     2.0;
    format      ascii;
    class       volVectorField;
    location    "0.4";
    object      U;
}
// * * * * * * * * * * * * * * * * * * * * * * * * * * * * * * * * * * * * * //

dimensions      [0 1 -1 0 0 0 0];

internalField   nonuniform List<vector> 
31632
(
(3.43706e-07 3.43706e-07 0.0399624)
(9.13543e-07 6.50712e-07 0.0793968)
(1.31192e-06 7.296e-07 0.0916492)
(1.62616e-06 7.41896e-07 0.0943819)
(1.88993e-06 7.4229e-07 0.0948584)
(2.07594e-06 7.4127e-07 0.0949291)
(2.15558e-06 7.40676e-07 0.0949408)
(2.11195e-06 7.41181e-07 0.0949454)
(1.94068e-06 7.43056e-07 0.094949)
(1.64817e-06 7.46116e-07 0.0949522)
(1.2496e-06 7.49787e-07 0.0949547)
(7.67109e-07 7.53265e-07 0.0949565)
(2.28214e-07 7.55771e-07 0.0949574)
(-3.35427e-07 7.5677e-07 0.0949574)
(-8.89727e-07 7.56171e-07 0.0949565)
(-1.39998e-06 7.5434e-07 0.0949547)
(-1.83262e-06 7.5199e-07 0.0949521)
(-2.15792e-06 7.49955e-07 0.094949)
(-2.35299e-06 7.48997e-07 0.0949454)
(-2.40508e-06 7.49551e-07 0.0949409)
(-2.3151e-06 7.51501e-07 0.0949292)
(-2.1004e-06 7.54006e-07 0.0948586)
(-1.79439e-06 7.54692e-07 0.0943822)
(-1.43215e-06 7.42676e-07 0.0916495)
(-9.83909e-07 6.64401e-07 0.079397)
(-3.67008e-07 3.5828e-07 0.0399626)
(6.50712e-07 9.13543e-07 0.0793968)
(1.73767e-06 1.73767e-06 0.161933)
(2.4943e-06 1.95491e-06 0.188004)
(3.0542e-06 1.99474e-06 0.193869)
(3.5053e-06 2.00295e-06 0.194898)
(3.81352e-06 2.00953e-06 0.195051)
(3.9323e-06 2.01956e-06 0.195076)
(3.83292e-06 2.03397e-06 0.195086)
(3.50861e-06 2.05237e-06 0.195093)
(2.97122e-06 2.07322e-06 0.195099)
(2.24715e-06 2.09401e-06 0.195104)
(1.37406e-06 2.11174e-06 0.195108)
(3.98358e-07 2.12351e-06 0.19511)
(-6.26052e-07 2.1271e-06 0.19511)
(-1.64011e-06 2.12175e-06 0.195108)
(-2.58218e-06 2.10809e-06 0.195104)
(-3.39061e-06 2.08823e-06 0.195099)
(-4.00893e-06 2.06529e-06 0.195093)
(-4.39175e-06 2.04285e-06 0.195086)
(-4.51194e-06 2.02409e-06 0.195076)
(-4.36822e-06 2.01099e-06 0.195051)
(-3.99085e-06 2.00334e-06 0.194898)
(-3.43879e-06 1.99561e-06 0.19387)
(-2.76613e-06 1.95762e-06 0.188005)
(-1.89657e-06 1.74734e-06 0.161933)
(-7.04165e-07 9.35844e-07 0.0793971)
(7.296e-07 1.31192e-06 0.0916492)
(1.95491e-06 2.4943e-06 0.188004)
(2.81325e-06 2.81325e-06 0.218593)
(3.43812e-06 2.88198e-06 0.225498)
(3.93615e-06 2.90737e-06 0.226712)
(4.27461e-06 2.93434e-06 0.226893)
(4.40321e-06 2.96985e-06 0.226923)
(4.29004e-06 3.01364e-06 0.226934)
(3.92718e-06 3.06321e-06 0.226942)
(3.32703e-06 3.11448e-06 0.226949)
(2.51796e-06 3.1622e-06 0.226955)
(1.54076e-06 3.20068e-06 0.22696)
(4.46079e-07 3.22462e-06 0.226962)
(-7.06364e-07 3.23e-06 0.226962)
(-1.85037e-06 3.21538e-06 0.226959)
(-2.9161e-06 3.18182e-06 0.226955)
(-3.83288e-06 3.13315e-06 0.226949)
(-4.53548e-06 3.07547e-06 0.226942)
(-4.97136e-06 3.01609e-06 0.226934)
(-5.10917e-06 2.96222e-06 0.226923)
(-4.94769e-06 2.91946e-06 0.226893)
(-4.52227e-06 2.88985e-06 0.226713)
(-3.90044e-06 2.86618e-06 0.225498)
(-3.14146e-06 2.80291e-06 0.218594)
(-2.15265e-06 2.49569e-06 0.188005)
(-7.98951e-07 1.32883e-06 0.0916496)
(7.41896e-07 1.62616e-06 0.0943819)
(1.99474e-06 3.0542e-06 0.193869)
(2.88198e-06 3.43812e-06 0.225498)
(3.52947e-06 3.52947e-06 0.232644)
(4.04686e-06 3.57312e-06 0.233902)
(4.40102e-06 3.62198e-06 0.23409)
(4.54016e-06 3.68355e-06 0.23412)
(4.43063e-06 3.75618e-06 0.234132)
(4.06298e-06 3.83529e-06 0.234141)
(3.44858e-06 3.91447e-06 0.234148)
(2.61546e-06 3.98607e-06 0.234154)
(1.60499e-06 4.04218e-06 0.234159)
(4.69421e-07 4.07575e-06 0.234161)
(-7.28561e-07 4.08177e-06 0.234161)
(-1.91889e-06 4.05882e-06 0.234159)
(-3.0275e-06 4.00886e-06 0.234154)
(-3.97926e-06 3.93765e-06 0.234148)
(-4.70529e-06 3.85389e-06 0.234141)
(-5.15082e-06 3.76785e-06 0.234132)
(-5.28421e-06 3.68961e-06 0.234121)
(-5.10626e-06 3.62702e-06 0.23409)
(-4.65644e-06 3.58321e-06 0.233903)
(-4.0076e-06 3.54937e-06 0.232645)
(-3.22312e-06 3.46902e-06 0.225499)
(-2.20716e-06 3.09204e-06 0.19387)
(-8.19391e-07 1.65376e-06 0.0943824)
(7.4229e-07 1.88993e-06 0.0948584)
(2.00295e-06 3.5053e-06 0.194898)
(2.90737e-06 3.93615e-06 0.226712)
(3.57312e-06 4.04686e-06 0.233902)
(4.10896e-06 4.10896e-06 0.235168)
(4.48023e-06 4.17969e-06 0.235357)
(4.63323e-06 4.26627e-06 0.235388)
(4.53233e-06 4.36554e-06 0.235399)
(4.16614e-06 4.47108e-06 0.235408)
(3.54458e-06 4.5744e-06 0.235416)
(2.69508e-06 4.66591e-06 0.235422)
(1.65957e-06 4.73612e-06 0.235426)
(4.92115e-07 4.77696e-06 0.235429)
(-7.41276e-07 4.78325e-06 0.235429)
(-1.9665e-06 4.75422e-06 0.235426)
(-3.10535e-06 4.69323e-06 0.235422)
(-4.07883e-06 4.60797e-06 0.235416)
(-4.81538e-06 4.50935e-06 0.235408)
(-5.25932e-06 4.40972e-06 0.235399)
(-5.38025e-06 4.32069e-06 0.235388)
(-5.18217e-06 4.25085e-06 0.235358)
(-4.70923e-06 4.20306e-06 0.235169)
(-4.03941e-06 4.16624e-06 0.233903)
(-3.24016e-06 4.07405e-06 0.226713)
(-2.21569e-06 3.63513e-06 0.194899)
(-8.22311e-07 1.95129e-06 0.0948589)
(7.4127e-07 2.07594e-06 0.0949291)
(2.00953e-06 3.81352e-06 0.195051)
(2.93434e-06 4.27461e-06 0.226893)
(3.62198e-06 4.40102e-06 0.23409)
(4.1797e-06 4.48023e-06 0.235357)
(4.571e-06 4.571e-06 0.235546)
(4.73998e-06 4.67964e-06 0.235577)
(4.64864e-06 4.80157e-06 0.235589)
(4.28348e-06 4.92869e-06 0.235597)
(3.65297e-06 5.0509e-06 0.235605)
(2.78419e-06 5.15723e-06 0.235611)
(1.72011e-06 5.23731e-06 0.235616)
(5.17333e-07 5.28283e-06 0.235618)
(-7.54119e-07 5.2892e-06 0.235618)
(-2.01552e-06 5.25671e-06 0.235616)
(-3.18416e-06 5.19036e-06 0.235611)
(-4.17715e-06 5.09962e-06 0.235605)
(-4.92063e-06 4.99701e-06 0.235597)
(-5.3588e-06 4.89595e-06 0.235589)
(-5.46339e-06 4.80836e-06 0.235578)
(-5.24248e-06 4.74229e-06 0.235547)
(-4.74532e-06 4.69925e-06 0.235358)
(-4.05471e-06 4.66554e-06 0.234091)
(-3.2411e-06 4.56604e-06 0.226894)
(-2.20914e-06 4.07458e-06 0.195052)
(-8.18043e-07 2.18761e-06 0.0949296)
(7.40676e-07 2.15558e-06 0.0949408)
(2.01956e-06 3.9323e-06 0.195076)
(2.96985e-06 4.40321e-06 0.226923)
(3.68355e-06 4.54016e-06 0.23412)
(4.26627e-06 4.63323e-06 0.235388)
(4.67964e-06 4.73998e-06 0.235577)
(4.86535e-06 4.86535e-06 0.235608)
(4.78297e-06 5.0035e-06 0.23562)
(4.41686e-06 5.14505e-06 0.235629)
(3.77425e-06 5.27888e-06 0.235636)
(2.8823e-06 5.39333e-06 0.235642)
(1.78563e-06 5.4779e-06 0.235647)
(5.44077e-07 5.52479e-06 0.235649)
(-7.67778e-07 5.53059e-06 0.235649)
(-2.06621e-06 5.49691e-06 0.235647)
(-3.26381e-06 5.4304e-06 0.235642)
(-4.27404e-06 5.34196e-06 0.235636)
(-5.02133e-06 5.24494e-06 0.235629)
(-5.45056e-06 5.15285e-06 0.23562)
(-5.53645e-06 5.07673e-06 0.235609)
(-5.29178e-06 5.02303e-06 0.235578)
(-4.77098e-06 4.99119e-06 0.235389)
(-4.06077e-06 4.96489e-06 0.234121)
(-3.23291e-06 4.86279e-06 0.226924)
(-2.19214e-06 4.33656e-06 0.195077)
(-8.081e-07 2.32311e-06 0.0949413)
(7.41181e-07 2.11195e-06 0.0949454)
(2.03397e-06 3.83292e-06 0.195086)
(3.01364e-06 4.29004e-06 0.226934)
(3.75618e-06 4.43063e-06 0.234132)
(4.36554e-06 4.53233e-06 0.235399)
(4.80157e-06 4.64864e-06 0.235589)
(5.0035e-06 4.78297e-06 0.23562)
(4.92849e-06 4.92849e-06 0.235631)
(4.55899e-06 5.07515e-06 0.23564)
(3.90135e-06 5.21143e-06 0.235648)
(2.98327e-06 5.32581e-06 0.235654)
(1.85161e-06 5.40837e-06 0.235658)
(5.70021e-07 5.45251e-06 0.235661)
(-7.82056e-07 5.45632e-06 0.23566)
(-2.11582e-06 5.42292e-06 0.235658)
(-3.33929e-06 5.36037e-06 0.235654)
(-4.36286e-06 5.28045e-06 0.235648)
(-5.11006e-06 5.19656e-06 0.23564)
(-5.52735e-06 5.12125e-06 0.235631)
(-5.5933e-06 5.06376e-06 0.23562)
(-5.32581e-06 5.0281e-06 0.235589)
(-4.78411e-06 5.01118e-06 0.2354)
(-4.05764e-06 4.99458e-06 0.234133)
(-3.21731e-06 4.89487e-06 0.226934)
(-2.1672e-06 4.3603e-06 0.195086)
(-7.93774e-07 2.32796e-06 0.0949458)
(7.43056e-07 1.94068e-06 0.094949)
(2.05237e-06 3.50861e-06 0.195093)
(3.06321e-06 3.92718e-06 0.226942)
(3.83529e-06 4.06298e-06 0.234141)
(4.47108e-06 4.16614e-06 0.235408)
(4.92869e-06 4.28348e-06 0.235597)
(5.14505e-06 4.41686e-06 0.235629)
(5.07515e-06 4.55899e-06 0.23564)
(4.69981e-06 4.69981e-06 0.235649)
(4.02492e-06 4.8282e-06 0.235657)
(3.07924e-06 4.93346e-06 0.235663)
(1.91232e-06 5.00698e-06 0.235667)
(5.92013e-07 5.04376e-06 0.235669)
(-7.97382e-07 5.04366e-06 0.235669)
(-2.16219e-06 5.01117e-06 0.235667)
(-3.40633e-06 4.9554e-06 0.235663)
(-4.43793e-06 4.88832e-06 0.235657)
(-5.18062e-06 4.82255e-06 0.235649)
(-5.58342e-06 4.76883e-06 0.23564)
(-5.62938e-06 4.73384e-06 0.235629)
(-5.34168e-06 4.71862e-06 0.235598)
(-4.78382e-06 4.7175e-06 0.235409)
(-4.04635e-06 4.7109e-06 0.234141)
(-3.19712e-06 4.61873e-06 0.226943)
(-2.1383e-06 4.10859e-06 0.195093)
(-7.77213e-07 2.18543e-06 0.0949493)
(7.46116e-07 1.64817e-06 0.0949522)
(2.07322e-06 2.97122e-06 0.195099)
(3.11448e-06 3.32703e-06 0.226949)
(3.91447e-06 3.44858e-06 0.234148)
(4.5744e-06 3.54458e-06 0.235416)
(5.0509e-06 3.65297e-06 0.235605)
(5.27888e-06 3.77425e-06 0.235636)
(5.21143e-06 3.90135e-06 0.235648)
(4.8282e-06 4.02492e-06 0.235657)
(4.135e-06 4.135e-06 0.235664)
(3.16205e-06 4.22241e-06 0.235671)
(1.9619e-06 4.28028e-06 0.235675)
(6.06695e-07 4.30553e-06 0.235677)
(-8.14661e-07 4.29968e-06 0.235677)
(-2.2041e-06 4.26831e-06 0.235675)
(-3.46218e-06 4.22101e-06 0.235671)
(-4.49576e-06 4.16922e-06 0.235664)
(-5.22961e-06 4.12396e-06 0.235657)
(-5.6161e-06 4.09353e-06 0.235648)
(-5.64325e-06 4.0816e-06 0.235637)
(-5.33944e-06 4.08616e-06 0.235605)
(-4.77153e-06 4.09922e-06 0.235416)
(-4.02957e-06 4.10144e-06 0.234149)
(-3.17628e-06 4.02199e-06 0.22695)
(-2.11049e-06 3.57205e-06 0.195099)
(-7.61121e-07 1.89311e-06 0.0949523)
(7.49787e-07 1.2496e-06 0.0949547)
(2.09401e-06 2.24715e-06 0.195104)
(3.1622e-06 2.51796e-06 0.226955)
(3.98607e-06 2.61546e-06 0.234154)
(4.66591e-06 2.69508e-06 0.235422)
(5.15723e-06 2.78419e-06 0.235611)
(5.39333e-06 2.8823e-06 0.235642)
(5.32581e-06 2.98327e-06 0.235654)
(4.93346e-06 3.07924e-06 0.235663)
(4.22241e-06 3.16205e-06 0.235671)
(3.22452e-06 3.22452e-06 0.235677)
(1.99544e-06 3.26185e-06 0.235681)
(6.11405e-07 3.27278e-06 0.235683)
(-8.34614e-07 3.26025e-06 0.235683)
(-2.24088e-06 3.23038e-06 0.235681)
(-3.50545e-06 3.19255e-06 0.235677)
(-4.53503e-06 3.15693e-06 0.235671)
(-5.25637e-06 3.1323e-06 0.235663)
(-5.6258e-06 3.12416e-06 0.235654)
(-5.63649e-06 3.1331e-06 0.235643)
(-5.3216e-06 3.15437e-06 0.235612)
(-4.75032e-06 3.17837e-06 0.235422)
(-4.01071e-06 3.18754e-06 0.234154)
(-3.15881e-06 3.12601e-06 0.226955)
(-2.08857e-06 2.77102e-06 0.195104)
(-7.48041e-07 1.46344e-06 0.0949547)
(7.53265e-07 7.67109e-07 0.0949565)
(2.11174e-06 1.37406e-06 0.195108)
(3.20068e-06 1.54076e-06 0.22696)
(4.04218e-06 1.60499e-06 0.234159)
(4.73612e-06 1.65957e-06 0.235426)
(5.23731e-06 1.72011e-06 0.235616)
(5.4779e-06 1.78563e-06 0.235647)
(5.40837e-06 1.85161e-06 0.235658)
(5.00698e-06 1.91232e-06 0.235667)
(4.28028e-06 1.9619e-06 0.235675)
(3.26185e-06 1.99544e-06 0.235681)
(2.01015e-06 2.01015e-06 0.235686)
(6.05088e-07 2.00634e-06 0.235688)
(-8.57075e-07 1.9878e-06 0.235688)
(-2.27182e-06 1.96053e-06 0.235686)
(-3.53566e-06 1.93295e-06 0.235681)
(-4.55606e-06 1.91325e-06 0.235675)
(-5.26242e-06 1.90765e-06 0.235667)
(-5.61531e-06 1.91878e-06 0.235658)
(-5.61282e-06 1.94453e-06 0.235647)
(-5.29219e-06 1.97808e-06 0.235616)
(-4.72388e-06 2.00925e-06 0.235426)
(-3.99283e-06 2.02371e-06 0.234159)
(-3.14757e-06 1.98515e-06 0.226959)
(-2.07603e-06 1.7549e-06 0.195108)
(-7.399e-07 9.23144e-07 0.0949564)
(7.55771e-07 2.28214e-07 0.0949574)
(2.12351e-06 3.98358e-07 0.19511)
(3.22462e-06 4.46079e-07 0.226962)
(4.07575e-06 4.6942e-07 0.234161)
(4.77696e-06 4.92115e-07 0.235429)
(5.28283e-06 5.17332e-07 0.235618)
(5.52479e-06 5.44077e-07 0.235649)
(5.45251e-06 5.70021e-07 0.235661)
(5.04376e-06 5.92013e-07 0.235669)
(4.30553e-06 6.06695e-07 0.235677)
(3.27278e-06 6.11405e-07 0.235683)
(2.00634e-06 6.05088e-07 0.235688)
(5.89045e-07 5.89045e-07 0.23569)
(-8.80433e-07 5.672e-07 0.23569)
(-2.29575e-06 5.44678e-07 0.235688)
(-3.55277e-06 5.28157e-07 0.235684)
(-4.56036e-06 5.23432e-07 0.235677)
(-5.25087e-06 5.34063e-07 0.23567)
(-5.58893e-06 5.60183e-07 0.235661)
(-5.57705e-06 5.97729e-07 0.235649)
(-5.2556e-06 6.38902e-07 0.235618)
(-4.69534e-06 6.73976e-07 0.235428)
(-3.97758e-06 6.93064e-07 0.234161)
(-3.14352e-06 6.82307e-07 0.226961)
(-2.07428e-06 5.98093e-07 0.19511)
(-7.37707e-07 3.1126e-07 0.0949573)
(7.5677e-07 -3.35427e-07 0.0949574)
(2.1271e-06 -6.26053e-07 0.19511)
(3.23e-06 -7.06365e-07 0.226962)
(4.08177e-06 -7.28561e-07 0.234161)
(4.78325e-06 -7.41276e-07 0.235429)
(5.2892e-06 -7.5412e-07 0.235618)
(5.53059e-06 -7.67778e-07 0.235649)
(5.45632e-06 -7.82057e-07 0.23566)
(5.04366e-06 -7.97382e-07 0.235669)
(4.29968e-06 -8.14661e-07 0.235677)
(3.26025e-06 -8.34614e-07 0.235683)
(1.9878e-06 -8.57075e-07 0.235688)
(5.672e-07 -8.80433e-07 0.23569)
(-9.01449e-07 -9.01449e-07 0.23569)
(-2.31088e-06 -9.16462e-07 0.235688)
(-3.55693e-06 -9.21088e-07 0.235684)
(-4.55019e-06 -9.12077e-07 0.235678)
(-5.22571e-06 -8.88259e-07 0.23567)
(-5.55167e-06 -8.51342e-07 0.235661)
(-5.53406e-06 -8.06351e-07 0.235649)
(-5.2155e-06 -7.60956e-07 0.235618)
(-4.66641e-06 -7.23484e-07 0.235428)
(-3.96452e-06 -6.98858e-07 0.234161)
(-3.145e-06 -6.78015e-07 0.226961)
(-2.08229e-06 -6.06675e-07 0.19511)
(-7.41414e-07 -3.2449e-07 0.0949573)
(7.56171e-07 -8.89727e-07 0.0949565)
(2.12175e-06 -1.64011e-06 0.195108)
(3.21538e-06 -1.85037e-06 0.226959)
(4.05882e-06 -1.91889e-06 0.234159)
(4.75422e-06 -1.9665e-06 0.235426)
(5.25671e-06 -2.01552e-06 0.235616)
(5.49691e-06 -2.06621e-06 0.235647)
(5.42292e-06 -2.11582e-06 0.235658)
(5.01117e-06 -2.16219e-06 0.235667)
(4.26831e-06 -2.2041e-06 0.235675)
(3.23038e-06 -2.24088e-06 0.235681)
(1.96053e-06 -2.27182e-06 0.235686)
(5.44678e-07 -2.29575e-06 0.235688)
(-9.16462e-07 -2.31088e-06 0.235688)
(-2.3154e-06 -2.3154e-06 0.235686)
(-3.5484e-06 -2.30746e-06 0.235682)
(-4.52757e-06 -2.28611e-06 0.235675)
(-5.19017e-06 -2.252e-06 0.235668)
(-5.50707e-06 -2.20777e-06 0.235659)
(-5.48674e-06 -2.15829e-06 0.235647)
(-5.17317e-06 -2.11011e-06 0.235616)
(-4.6363e-06 -2.0696e-06 0.235426)
(-3.95125e-06 -2.03695e-06 0.234158)
(-3.14892e-06 -1.98217e-06 0.226959)
(-2.09757e-06 -1.75924e-06 0.195108)
(-7.50282e-07 -9.33124e-07 0.0949564)
(7.5434e-07 -1.39998e-06 0.0949547)
(2.10809e-06 -2.58218e-06 0.195104)
(3.18182e-06 -2.9161e-06 0.226955)
(4.00886e-06 -3.0275e-06 0.234154)
(4.69323e-06 -3.10535e-06 0.235422)
(5.19036e-06 -3.18416e-06 0.235611)
(5.4304e-06 -3.26381e-06 0.235642)
(5.36037e-06 -3.33929e-06 0.235654)
(4.9554e-06 -3.40633e-06 0.235663)
(4.22101e-06 -3.46218e-06 0.235671)
(3.19255e-06 -3.50545e-06 0.235677)
(1.93295e-06 -3.53566e-06 0.235681)
(5.28157e-07 -3.55277e-06 0.235684)
(-9.21088e-07 -3.55693e-06 0.235684)
(-2.30745e-06 -3.5484e-06 0.235682)
(-3.52766e-06 -3.52766e-06 0.235677)
(-4.49476e-06 -3.49557e-06 0.235671)
(-5.1474e-06 -3.4537e-06 0.235663)
(-5.45801e-06 -3.40453e-06 0.235654)
(-5.4366e-06 -3.35178e-06 0.235643)
(-5.12809e-06 -3.30017e-06 0.235612)
(-4.60235e-06 -3.25399e-06 0.235422)
(-3.93332e-06 -3.20973e-06 0.234154)
(-3.15004e-06 -3.12059e-06 0.226955)
(-2.11565e-06 -2.76371e-06 0.195104)
(-7.62599e-07 -1.46627e-06 0.0949547)
(7.5199e-07 -1.83262e-06 0.0949521)
(2.08823e-06 -3.39061e-06 0.195099)
(3.13315e-06 -3.83288e-06 0.226949)
(3.93765e-06 -3.97926e-06 0.234148)
(4.60797e-06 -4.07883e-06 0.235416)
(5.09962e-06 -4.17715e-06 0.235605)
(5.34196e-06 -4.27404e-06 0.235636)
(5.28045e-06 -4.36286e-06 0.235648)
(4.88832e-06 -4.43793e-06 0.235657)
(4.16922e-06 -4.49576e-06 0.235664)
(3.15693e-06 -4.53503e-06 0.235671)
(1.91325e-06 -4.55606e-06 0.235675)
(5.23432e-07 -4.56036e-06 0.235677)
(-9.12077e-07 -4.55019e-06 0.235678)
(-2.28611e-06 -4.52757e-06 0.235675)
(-3.49557e-06 -4.49476e-06 0.235671)
(-4.45362e-06 -4.45362e-06 0.235665)
(-5.09917e-06 -4.40561e-06 0.235657)
(-5.40522e-06 -4.35215e-06 0.235648)
(-5.38266e-06 -4.2951e-06 0.235637)
(-5.07735e-06 -4.23722e-06 0.235606)
(-4.56e-06 -4.18125e-06 0.235416)
(-3.90518e-06 -4.12161e-06 0.234149)
(-3.14241e-06 -4.00065e-06 0.22695)
(-2.13089e-06 -3.53994e-06 0.1951)
(-7.758e-07 -1.8837e-06 0.0949523)
(7.49955e-07 -2.15792e-06 0.094949)
(2.06529e-06 -4.00893e-06 0.195093)
(3.07547e-06 -4.53548e-06 0.226942)
(3.85389e-06 -4.70529e-06 0.234141)
(4.50935e-06 -4.81538e-06 0.235408)
(4.99701e-06 -4.92063e-06 0.235597)
(5.24494e-06 -5.02133e-06 0.235629)
(5.19656e-06 -5.11006e-06 0.23564)
(4.82255e-06 -5.18062e-06 0.235649)
(4.12396e-06 -5.22961e-06 0.235657)
(3.1323e-06 -5.25637e-06 0.235663)
(1.90765e-06 -5.26242e-06 0.235667)
(5.34063e-07 -5.25087e-06 0.23567)
(-8.88259e-07 -5.22571e-06 0.23567)
(-2.252e-06 -5.19017e-06 0.235668)
(-3.4537e-06 -5.1474e-06 0.235663)
(-4.40561e-06 -5.09917e-06 0.235657)
(-5.04595e-06 -5.04595e-06 0.23565)
(-5.34756e-06 -4.98745e-06 0.235641)
(-5.32201e-06 -4.92362e-06 0.235629)
(-5.01667e-06 -4.85572e-06 0.235598)
(-4.50426e-06 -4.78588e-06 0.235409)
(-3.86164e-06 -4.70847e-06 0.234141)
(-3.12041e-06 -4.56151e-06 0.226943)
(-2.13706e-06 -4.03588e-06 0.195093)
(-7.86537e-07 -2.15852e-06 0.0949493)
(7.48997e-07 -2.35299e-06 0.0949454)
(2.04285e-06 -4.39175e-06 0.195086)
(3.01609e-06 -4.97136e-06 0.226934)
(3.76785e-06 -5.15082e-06 0.234132)
(4.40972e-06 -5.25932e-06 0.235399)
(4.89595e-06 -5.3588e-06 0.235589)
(5.15285e-06 -5.45056e-06 0.23562)
(5.12125e-06 -5.52735e-06 0.235631)
(4.76883e-06 -5.58342e-06 0.23564)
(4.09353e-06 -5.6161e-06 0.235648)
(3.12416e-06 -5.6258e-06 0.235654)
(1.91878e-06 -5.61531e-06 0.235658)
(5.60183e-07 -5.58893e-06 0.235661)
(-8.51342e-07 -5.55167e-06 0.235661)
(-2.20777e-06 -5.50707e-06 0.235659)
(-3.40453e-06 -5.45801e-06 0.235654)
(-4.35215e-06 -5.40522e-06 0.235648)
(-4.98745e-06 -5.34756e-06 0.235641)
(-5.28294e-06 -5.28294e-06 0.235632)
(-5.25125e-06 -5.20989e-06 0.235621)
(-4.94218e-06 -5.12913e-06 0.235589)
(-4.43164e-06 -5.04345e-06 0.2354)
(-3.79976e-06 -4.94903e-06 0.234133)
(-3.08061e-06 -4.78544e-06 0.226934)
(-2.12898e-06 -4.23678e-06 0.195086)
(-7.91482e-07 -2.28073e-06 0.0949457)
(7.49551e-07 -2.40508e-06 0.0949409)
(2.02409e-06 -4.51194e-06 0.195076)
(2.96222e-06 -5.10917e-06 0.226923)
(3.68961e-06 -5.28421e-06 0.234121)
(4.32069e-06 -5.38025e-06 0.235388)
(4.80836e-06 -5.46339e-06 0.235578)
(5.07673e-06 -5.53645e-06 0.235609)
(5.06376e-06 -5.59331e-06 0.23562)
(4.73384e-06 -5.62938e-06 0.235629)
(4.0816e-06 -5.64325e-06 0.235637)
(3.1331e-06 -5.63649e-06 0.235643)
(1.94453e-06 -5.61282e-06 0.235647)
(5.9773e-07 -5.57705e-06 0.235649)
(-8.06351e-07 -5.53406e-06 0.235649)
(-2.15829e-06 -5.48674e-06 0.235647)
(-3.35178e-06 -5.4366e-06 0.235643)
(-4.2951e-06 -5.38266e-06 0.235637)
(-4.92362e-06 -5.32201e-06 0.235629)
(-5.20989e-06 -5.25126e-06 0.235621)
(-5.16846e-06 -5.16846e-06 0.235609)
(-4.85265e-06 -5.07508e-06 0.235578)
(-4.34248e-06 -4.97578e-06 0.235389)
(-3.72127e-06 -4.86976e-06 0.234121)
(-3.02442e-06 -4.70193e-06 0.226923)
(-2.10537e-06 -4.16817e-06 0.195077)
(-7.88854e-07 -2.2584e-06 0.0949412)
(7.51501e-07 -2.3151e-06 0.0949292)
(2.01099e-06 -4.36822e-06 0.195051)
(2.91946e-06 -4.94769e-06 0.226893)
(3.62702e-06 -5.10626e-06 0.23409)
(4.25085e-06 -5.18217e-06 0.235358)
(4.74229e-06 -5.24248e-06 0.235547)
(5.02303e-06 -5.29178e-06 0.235578)
(5.0281e-06 -5.32581e-06 0.235589)
(4.71863e-06 -5.34168e-06 0.235598)
(4.08616e-06 -5.33944e-06 0.235605)
(3.15437e-06 -5.3216e-06 0.235612)
(1.97808e-06 -5.29219e-06 0.235616)
(6.38903e-07 -5.2556e-06 0.235618)
(-7.60955e-07 -5.2155e-06 0.235618)
(-2.11011e-06 -5.17317e-06 0.235616)
(-3.30017e-06 -5.12809e-06 0.235612)
(-4.23722e-06 -5.07735e-06 0.235606)
(-4.85572e-06 -5.01667e-06 0.235598)
(-5.12913e-06 -4.94218e-06 0.235589)
(-5.07508e-06 -4.85265e-06 0.235578)
(-4.75142e-06 -4.75142e-06 0.235547)
(-4.24259e-06 -4.64585e-06 0.235358)
(-3.63397e-06 -4.53842e-06 0.234091)
(-2.95975e-06 -4.38032e-06 0.226894)
(-2.07127e-06 -3.88943e-06 0.195052)
(-7.79932e-07 -2.11564e-06 0.0949294)
(7.54006e-07 -2.1004e-06 0.0948586)
(2.00334e-06 -3.99085e-06 0.194898)
(2.88985e-06 -4.52227e-06 0.226713)
(3.58321e-06 -4.65644e-06 0.233903)
(4.20306e-06 -4.70923e-06 0.235169)
(4.69925e-06 -4.74532e-06 0.235358)
(4.99119e-06 -4.77098e-06 0.235389)
(5.01118e-06 -4.78411e-06 0.2354)
(4.7175e-06 -4.78382e-06 0.235409)
(4.09922e-06 -4.77153e-06 0.235416)
(3.17837e-06 -4.75032e-06 0.235422)
(2.00925e-06 -4.72388e-06 0.235426)
(6.73977e-07 -4.69534e-06 0.235428)
(-7.23484e-07 -4.66641e-06 0.235428)
(-2.0696e-06 -4.6363e-06 0.235426)
(-3.25399e-06 -4.60235e-06 0.235422)
(-4.18125e-06 -4.56e-06 0.235416)
(-4.78588e-06 -4.50426e-06 0.235409)
(-5.04345e-06 -4.43164e-06 0.2354)
(-4.97578e-06 -4.34248e-06 0.235389)
(-4.64585e-06 -4.24259e-06 0.235358)
(-4.14215e-06 -4.14215e-06 0.235169)
(-3.55015e-06 -4.04618e-06 0.233903)
(-2.89964e-06 -3.91082e-06 0.226713)
(-2.03771e-06 -3.47805e-06 0.194898)
(-7.69338e-07 -1.88804e-06 0.0948587)
(7.54692e-07 -1.79439e-06 0.0943822)
(1.99561e-06 -3.43879e-06 0.19387)
(2.86618e-06 -3.90044e-06 0.225498)
(3.54937e-06 -4.0076e-06 0.232645)
(4.16624e-06 -4.03941e-06 0.233903)
(4.66554e-06 -4.05471e-06 0.234091)
(4.96489e-06 -4.06077e-06 0.234121)
(4.99458e-06 -4.05764e-06 0.234133)
(4.7109e-06 -4.04635e-06 0.234141)
(4.10144e-06 -4.02957e-06 0.234149)
(3.18754e-06 -4.01071e-06 0.234154)
(2.02371e-06 -3.99283e-06 0.234159)
(6.93064e-07 -3.97758e-06 0.234161)
(-6.98857e-07 -3.96452e-06 0.234161)
(-2.03695e-06 -3.95125e-06 0.234158)
(-3.20973e-06 -3.93332e-06 0.234154)
(-4.12161e-06 -3.90518e-06 0.234149)
(-4.70847e-06 -3.86164e-06 0.234141)
(-4.94903e-06 -3.79976e-06 0.234133)
(-4.86976e-06 -3.72127e-06 0.234121)
(-4.53842e-06 -3.63397e-06 0.234091)
(-4.04618e-06 -3.55015e-06 0.233903)
(-3.47653e-06 -3.47653e-06 0.232645)
(-2.85258e-06 -3.37302e-06 0.225498)
(-2.01439e-06 -3.00388e-06 0.19387)
(-7.62162e-07 -1.61437e-06 0.0943821)
(7.42676e-07 -1.43215e-06 0.0916495)
(1.95762e-06 -2.76613e-06 0.188005)
(2.80291e-06 -3.14146e-06 0.218594)
(3.46902e-06 -3.22312e-06 0.225499)
(4.07405e-06 -3.24016e-06 0.226713)
(4.56604e-06 -3.2411e-06 0.226894)
(4.86279e-06 -3.23291e-06 0.226924)
(4.89487e-06 -3.21731e-06 0.226934)
(4.61873e-06 -3.19712e-06 0.226943)
(4.02199e-06 -3.17628e-06 0.22695)
(3.12602e-06 -3.15881e-06 0.226955)
(1.98515e-06 -3.14757e-06 0.226959)
(6.82308e-07 -3.14352e-06 0.226961)
(-6.78015e-07 -3.145e-06 0.226961)
(-1.98217e-06 -3.14892e-06 0.226959)
(-3.12059e-06 -3.15004e-06 0.226955)
(-4.00065e-06 -3.14241e-06 0.22695)
(-4.56151e-06 -3.12041e-06 0.226943)
(-4.78544e-06 -3.08061e-06 0.226934)
(-4.70193e-06 -3.02442e-06 0.226923)
(-4.38032e-06 -2.95975e-06 0.226894)
(-3.91082e-06 -2.89964e-06 0.226713)
(-3.37302e-06 -2.85258e-06 0.225498)
(-2.78421e-06 -2.78421e-06 0.218594)
(-1.97981e-06 -2.4849e-06 0.188004)
(-7.51932e-07 -1.31763e-06 0.0916494)
(6.64401e-07 -9.83909e-07 0.079397)
(1.74734e-06 -1.89657e-06 0.161933)
(2.49569e-06 -2.15265e-06 0.188005)
(3.09204e-06 -2.20716e-06 0.19387)
(3.63513e-06 -2.21569e-06 0.194899)
(4.07458e-06 -2.20914e-06 0.195052)
(4.33656e-06 -2.19214e-06 0.195077)
(4.3603e-06 -2.1672e-06 0.195086)
(4.10859e-06 -2.1383e-06 0.195093)
(3.57205e-06 -2.11049e-06 0.195099)
(2.77102e-06 -2.08857e-06 0.195104)
(1.7549e-06 -2.07603e-06 0.195108)
(5.98093e-07 -2.07428e-06 0.19511)
(-6.06674e-07 -2.08229e-06 0.19511)
(-1.75924e-06 -2.09757e-06 0.195108)
(-2.76371e-06 -2.11565e-06 0.195104)
(-3.53994e-06 -2.13089e-06 0.1951)
(-4.03588e-06 -2.13706e-06 0.195093)
(-4.23678e-06 -2.12898e-06 0.195086)
(-4.16817e-06 -2.10537e-06 0.195077)
(-3.88943e-06 -2.07127e-06 0.195052)
(-3.47805e-06 -2.03771e-06 0.194898)
(-3.00388e-06 -2.01439e-06 0.19387)
(-2.4849e-06 -1.97981e-06 0.188004)
(-1.77745e-06 -1.77745e-06 0.161933)
(-6.78151e-07 -9.41277e-07 0.0793969)
(3.5828e-07 -3.67008e-07 0.0399626)
(9.35844e-07 -7.04165e-07 0.0793971)
(1.32883e-06 -7.98951e-07 0.0916496)
(1.65376e-06 -8.19391e-07 0.0943824)
(1.95129e-06 -8.22311e-07 0.0948589)
(2.18761e-06 -8.18043e-07 0.0949296)
(2.32311e-06 -8.081e-07 0.0949413)
(2.32796e-06 -7.93774e-07 0.0949458)
(2.18543e-06 -7.77213e-07 0.0949493)
(1.89311e-06 -7.61121e-07 0.0949523)
(1.46344e-06 -7.48041e-07 0.0949547)
(9.23145e-07 -7.399e-07 0.0949564)
(3.1126e-07 -7.37707e-07 0.0949573)
(-3.24489e-07 -7.41414e-07 0.0949573)
(-9.33124e-07 -7.50282e-07 0.0949564)
(-1.46627e-06 -7.62599e-07 0.0949547)
(-1.8837e-06 -7.758e-07 0.0949523)
(-2.15852e-06 -7.86537e-07 0.0949493)
(-2.28073e-06 -7.91482e-07 0.0949457)
(-2.2584e-06 -7.88854e-07 0.0949412)
(-2.11564e-06 -7.79932e-07 0.0949294)
(-1.88804e-06 -7.69338e-07 0.0948587)
(-1.61437e-06 -7.62162e-07 0.0943821)
(-1.31763e-06 -7.51932e-07 0.0916494)
(-9.41277e-07 -6.78151e-07 0.0793969)
(-3.60905e-07 -3.60905e-07 0.0399625)
(4.0007e-07 4.0007e-07 0.0399609)
(1.28951e-06 7.71083e-07 0.0793947)
(2.18847e-06 8.70174e-07 0.0916473)
(2.94336e-06 8.87456e-07 0.09438)
(3.56414e-06 8.9116e-07 0.0948566)
(4.00415e-06 8.95183e-07 0.0949275)
(4.2139e-06 9.01225e-07 0.0949394)
(4.16454e-06 9.08966e-07 0.0949442)
(3.85029e-06 9.17702e-07 0.094948)
(3.28618e-06 9.26494e-07 0.0949513)
(2.50546e-06 9.34272e-07 0.0949541)
(1.55651e-06 9.4003e-07 0.094956)
(4.99235e-07 9.43124e-07 0.0949569)
(-5.98618e-07 9.43425e-07 0.0949569)
(-1.66596e-06 9.41276e-07 0.094956)
(-2.63304e-06 9.37605e-07 0.094954)
(-3.43583e-06 9.33553e-07 0.0949514)
(-4.02087e-06 9.30167e-07 0.0949481)
(-4.34968e-06 9.28234e-07 0.0949443)
(-4.40296e-06 9.28136e-07 0.0949396)
(-4.18438e-06 9.29813e-07 0.0949277)
(-3.72358e-06 9.32609e-07 0.094857)
(-3.0741e-06 9.33686e-07 0.0943804)
(-2.28905e-06 9.18072e-07 0.0916476)
(-1.35891e-06 8.16103e-07 0.0793951)
(-4.26841e-07 4.3021e-07 0.039961)
(7.71083e-07 1.28951e-06 0.0793947)
(2.44404e-06 2.44404e-06 0.16193)
(4.06252e-06 2.75162e-06 0.188002)
(5.35753e-06 2.81229e-06 0.193868)
(6.39412e-06 2.82976e-06 0.194897)
(7.11243e-06 2.84722e-06 0.19505)
(7.43356e-06 2.87065e-06 0.195075)
(7.31014e-06 2.89927e-06 0.195085)
(6.73392e-06 2.9308e-06 0.195093)
(5.73174e-06 2.96225e-06 0.1951)
(4.36036e-06 2.99022e-06 0.195105)
(2.70115e-06 3.01146e-06 0.195109)
(8.54245e-07 3.02352e-06 0.195111)
(-1.06666e-06 3.02516e-06 0.195111)
(-2.94128e-06 3.01659e-06 0.195109)
(-4.65014e-06 2.99966e-06 0.195105)
(-6.0814e-06 2.97726e-06 0.1951)
(-7.13975e-06 2.9528e-06 0.195093)
(-7.75464e-06 2.92964e-06 0.195085)
(-7.88862e-06 2.91059e-06 0.195076)
(-7.54521e-06 2.89738e-06 0.19505)
(-6.77455e-06 2.88969e-06 0.194897)
(-5.66664e-06 2.87979e-06 0.193869)
(-4.29833e-06 2.82314e-06 0.188003)
(-2.60736e-06 2.51523e-06 0.161931)
(-8.34513e-07 1.3424e-06 0.0793951)
(8.70174e-07 2.18847e-06 0.0916473)
(2.75162e-06 4.06252e-06 0.188002)
(4.5509e-06 4.5509e-06 0.218592)
(5.96881e-06 4.65478e-06 0.225497)
(7.09744e-06 4.69211e-06 0.226711)
(7.87665e-06 4.73019e-06 0.226892)
(8.22033e-06 4.77825e-06 0.226922)
(8.07628e-06 4.83458e-06 0.226934)
(7.43533e-06 4.89495e-06 0.226943)
(6.32665e-06 4.95406e-06 0.22695)
(4.81195e-06 5.0061e-06 0.226957)
(2.97975e-06 5.04551e-06 0.226961)
(9.39124e-07 5.06781e-06 0.226963)
(-1.18552e-06 5.07021e-06 0.226963)
(-3.26191e-06 5.05237e-06 0.226961)
(-5.15794e-06 5.01642e-06 0.226957)
(-6.74922e-06 4.96667e-06 0.22695)
(-7.92912e-06 4.90901e-06 0.226943)
(-8.61843e-06 4.85003e-06 0.226934)
(-8.77487e-06 4.79606e-06 0.226923)
(-8.40245e-06 4.75208e-06 0.226893)
(-7.55798e-06 4.71975e-06 0.226712)
(-6.34268e-06 4.68865e-06 0.225498)
(-4.83872e-06 4.59069e-06 0.218593)
(-2.95682e-06 4.10852e-06 0.188003)
(-9.5184e-07 2.22834e-06 0.0916477)
(8.87456e-07 2.94336e-06 0.09438)
(2.81229e-06 5.35753e-06 0.193868)
(4.65478e-06 5.96881e-06 0.225497)
(6.10526e-06 6.10526e-06 0.232644)
(7.2617e-06 6.16318e-06 0.233902)
(8.06232e-06 6.22353e-06 0.23409)
(8.4182e-06 6.29676e-06 0.234121)
(8.27507e-06 6.38007e-06 0.234132)
(7.6226e-06 6.46753e-06 0.234142)
(6.48977e-06 6.55184e-06 0.23415)
(4.93897e-06 6.62521e-06 0.234156)
(3.06046e-06 6.68025e-06 0.234161)
(9.65983e-07 6.71098e-06 0.234163)
(-1.21632e-06 6.71367e-06 0.234163)
(-3.34979e-06 6.68786e-06 0.234161)
(-5.29773e-06 6.63621e-06 0.234156)
(-6.93137e-06 6.56447e-06 0.23415)
(-8.14052e-06 6.48063e-06 0.234142)
(-8.84371e-06 6.39383e-06 0.234133)
(-8.99825e-06 6.31299e-06 0.234121)
(-8.60973e-06 6.24529e-06 0.23409)
(-7.7388e-06 6.19356e-06 0.233903)
(-6.49212e-06 6.14578e-06 0.232645)
(-4.95589e-06 6.0184e-06 0.225498)
(-3.03386e-06 5.41107e-06 0.193869)
(-9.77785e-07 2.97931e-06 0.0943806)
(8.9116e-07 3.56414e-06 0.0948566)
(2.82976e-06 6.39412e-06 0.194897)
(4.69211e-06 7.09744e-06 0.226711)
(6.16318e-06 7.2617e-06 0.233902)
(7.34049e-06 7.34049e-06 0.235168)
(8.15948e-06 7.42339e-06 0.235357)
(8.52873e-06 7.52117e-06 0.235388)
(8.39196e-06 7.62989e-06 0.2354)
(7.73739e-06 7.74202e-06 0.23541)
(6.59318e-06 7.8486e-06 0.235418)
(5.02188e-06 7.94021e-06 0.235424)
(3.1149e-06 8.00814e-06 0.235429)
(9.86208e-07 8.04549e-06 0.235431)
(-1.23283e-06 8.04831e-06 0.235431)
(-3.40182e-06 8.01648e-06 0.235429)
(-5.38038e-06 7.9536e-06 0.235424)
(-7.03646e-06 7.86687e-06 0.235418)
(-8.25768e-06 7.76602e-06 0.23541)
(-8.96179e-06 7.662e-06 0.235401)
(-9.1069e-06 7.56523e-06 0.235389)
(-8.70106e-06 7.48385e-06 0.235358)
(-7.80866e-06 7.42089e-06 0.235169)
(-6.54085e-06 7.36235e-06 0.233903)
(-4.98784e-06 7.21184e-06 0.226713)
(-3.05285e-06 6.50047e-06 0.194898)
(-9.83749e-07 3.61286e-06 0.0948572)
(8.95183e-07 4.00415e-06 0.0949275)
(2.84722e-06 7.11243e-06 0.19505)
(4.73019e-06 7.87665e-06 0.226892)
(6.22353e-06 8.06232e-06 0.23409)
(7.42339e-06 8.15948e-06 0.235357)
(8.26227e-06 8.26227e-06 0.235546)
(8.64608e-06 8.38109e-06 0.235578)
(8.51629e-06 8.51086e-06 0.23559)
(7.85948e-06 8.64274e-06 0.235599)
(6.70302e-06 8.76648e-06 0.235607)
(5.10972e-06 8.87155e-06 0.235614)
(3.17248e-06 8.94852e-06 0.235618)
(1.0079e-06 8.99024e-06 0.235621)
(-1.24895e-06 8.99308e-06 0.235621)
(-3.45361e-06 8.95763e-06 0.235618)